,task_id,pretty_formula,band_gap,unit_cell_formula,nsites,e_above_hull,elements,volume
24728,mp-19057,CaNiP2O7,3.874,"{'Ca': 2.0, 'Ni': 2.0, 'P': 4.0, 'O': 14.0}",22,0.005644004924243,"['Ca', 'Ni', 'O', 'P']",257.486908306729
24731,mp-19387,CdWO4,3.2559,"{'O': 8.0, 'Cd': 2.0, 'W': 2.0}",12,0,"['Cd', 'W', 'O']",159.142724279982
24813,mp-3881,BaZnF4,4.5488,"{'F': 8.0, 'Zn': 2.0, 'Ba': 2.0}",12,0,"['Ba', 'Zn', 'F']",189.283452091231
24858,mp-557577,K3ScSi2O7,3.6385,"{'K': 6.0, 'Sc': 2.0, 'Si': 4.0, 'O': 14.0}",26,0,"['K', 'O', 'Sc', 'Si']",386.475109080594
24860,mp-558281,SrCrF4,3.6139,"{'F': 8.0, 'Cr': 2.0, 'Sr': 2.0}",12,0,"['Cr', 'F', 'Sr']",184.092583550181
24873,mp-570005,SbBr3,3.1147,"{'Sb': 4.0, 'Br': 12.0}",16,0,"['Br', 'Sb']",648.503412144682
24960,mp-777758,Li2MnFe(BO3)2,3.1309,"{'Li': 2.0, 'Mn': 1.0, 'Fe': 1.0, 'B': 2.0, 'O': 6.0}",12,0.004723947638885,"['B', 'Fe', 'Li', 'Mn', 'O']",126.897786001373
24998,mvc-15846,CaWF6,3.7402,"{'Ca': 1.0, 'W': 1.0, 'F': 6.0}",8,0,"['Ca', 'F', 'W']",144.356678533895
25043,mp-1096927,CsCaCl3,5.3456,"{'Cs': 1.0, 'Ca': 1.0, 'Cl': 3.0}",5,0.000141703999999,"['Ca', 'Cl', 'Cs']",163.02207990762
25106,mp-1195471,K2Ta4O11,3.3488,"{'K': 4.0, 'Ta': 8.0, 'O': 22.0}",34,0,"['K', 'O', 'Ta']",434.339747406306
25140,mp-1213159,CsSc(SO4)2,4.2,"{'Cs': 1.0, 'Sc': 1.0, 'S': 2.0, 'O': 8.0}",12,0,"['Cs', 'O', 'S', 'Sc']",211.504381053742
25259,mp-555606,Na10Be4Si4O17,3.9498,"{'Na': 10.0, 'Be': 4.0, 'Si': 4.0, 'O': 17.0}",35,0.002691008642855,"['Be', 'Na', 'O', 'Si']",397.074146157684
25273,mp-558645,PBr3O,3.0739,"{'P': 4.0, 'Br': 12.0, 'O': 4.0}",20,0,"['P', 'Br', 'O']",719.681554511548
25281,mp-560228,K6Ti2O7,3.4542,"{'K': 12.0, 'Ti': 4.0, 'O': 14.0}",30,0.000314467333332,"['K', 'O', 'Ti']",596.780816768448
25284,mp-560874,BaPb2C2(O3F)2,4.0712,"{'Ba': 1.0, 'Pb': 2.0, 'C': 2.0, 'O': 6.0, 'F': 2.0}",13,0.004080876538461,"['Ba', 'C', 'F', 'O', 'Pb']",191.27738293673
25288,mp-561942,Cs3TaO8,3.0344,"{'Cs': 3.0, 'Ta': 1.0, 'O': 8.0}",12,0.005532728906249,"['Cs', 'O', 'Ta']",241.453949603425
25303,mp-581403,K3Na4Si3BF22,6.9762,"{'K': 3.0, 'Na': 4.0, 'Si': 3.0, 'B': 1.0, 'F': 22.0}",33,0.002974369444442,"['B', 'F', 'K', 'Na', 'Si']",456.033701058595
25312,mp-616458,Cs2CO3,3.2179,"{'Cs': 8.0, 'C': 4.0, 'O': 12.0}",24,0,"['Cs', 'C', 'O']",542.410768669692
25391,mp-754903,Y(BO2)3,5.4534,"{'Y': 2.0, 'B': 6.0, 'O': 12.0}",20,0.007179178666664,"['B', 'O', 'Y']",197.207366832062
25486,mp-984332,Rb2Sr2(CO3)3,4.6134,"{'Rb': 4.0, 'Sr': 4.0, 'C': 6.0, 'O': 18.0}",32,0.002890037812499,"['C', 'O', 'Rb', 'Sr']",491.72941347128
25487,mp-984872,CsPb2Cl5,3.8183,"{'Cs': 2.0, 'Pb': 4.0, 'Cl': 10.0}",16,0,"['Cl', 'Cs', 'Pb']",524.725871568953
25687,mp-1214853,AlInBr4,3.5634,"{'Al': 4.0, 'In': 4.0, 'Br': 16.0}",24,0,"['Al', 'Br', 'In']",888.119234931529
25742,mp-1581,As2O3,3.6194,"{'O': 12.0, 'As': 8.0}",20,0,"['As', 'O']",378.967530627589
25751,mp-19931,Na2MgAlF7,6.6702,"{'F': 14.0, 'Na': 4.0, 'Mg': 2.0, 'Al': 2.0}",22,0.001028480454545,"['Al', 'F', 'Mg', 'Na']",269.197753649652
25770,mp-25469,AlCl3,5.2758,"{'Al': 2.0, 'Cl': 6.0}",8,0,"['Al', 'Cl']",199.902752674652
25789,mp-541908,KSbF6,4.9633,"{'K': 4.0, 'Sb': 4.0, 'F': 24.0}",32,0.002130516875001,"['F', 'K', 'Sb']",562.232772971261
25807,mp-560790,Cs2NaBiF6,5.0369,"{'Cs': 2.0, 'Na': 1.0, 'Bi': 1.0, 'F': 6.0}",10,0,"['Bi', 'Cs', 'F', 'Na']",204.040326105617
25825,mp-6160,Rb2PO3F,4.313,"{'O': 12.0, 'F': 4.0, 'P': 4.0, 'Rb': 8.0}",28,0,"['F', 'O', 'P', 'Rb']",537.903191904
25826,mp-6208,Ca2BeSi2O7,4.9937,"{'Be': 2.0, 'O': 14.0, 'Si': 4.0, 'Ca': 4.0}",24,0.000372479583333,"['Be', 'Ca', 'O', 'Si']",282.5907232591
25833,mp-6667,CaBPO5,5.3171,"{'B': 3.0, 'O': 15.0, 'P': 3.0, 'Ca': 3.0}",24,0.005556636101186,"['B', 'Ca', 'O', 'P']",264.36660553508
25861,mp-756725,Ba2CaI6,3.5732,"{'Ba': 4.0, 'Ca': 2.0, 'I': 12.0}",18,0.006872108611111,"['Ba', 'Ca', 'I']",811.383768861882
25930,mp-8398,CsYbF3,7.0491,"{'F': 3.0, 'Cs': 1.0, 'Yb': 1.0}",5,0,"['Cs', 'Yb', 'F']",91.8269042322759
25940,mp-865750,Li2TeO3,3.3528,"{'Li': 4.0, 'Te': 2.0, 'O': 6.0}",12,0.005406738749998,"['Li', 'O', 'Te']",185.593894752138
25946,mp-866304,Ba2GdB2ClO6,3.1318,"{'Ba': 4.0, 'Gd': 2.0, 'B': 4.0, 'Cl': 2.0, 'O': 12.0}",24,0,"['B', 'Ba', 'Cl', 'Gd', 'O']",403.473922939221
26146,mp-1188970,Cs2CdFe(CN)6,4.112,"{'Cs': 2.0, 'Cd': 1.0, 'Fe': 1.0, 'C': 6.0, 'N': 6.0}",16,0,"['C', 'Cd', 'Cs', 'Fe', 'N']",314.099523875579
26209,mp-1209357,Rb3Y(PO4)2,4.7198,"{'Rb': 3.0, 'Y': 1.0, 'P': 2.0, 'O': 8.0}",14,0,"['O', 'P', 'Rb', 'Y']",231.05253734779
26247,mp-1223363,KSO2F,4.1647,"{'K': 2.0, 'S': 2.0, 'O': 4.0, 'F': 2.0}",10,0.005017044999997,"['F', 'K', 'O', 'S']",190.695824309697
26265,mp-1227499,Ca2Al2SiO7,4.315,"{'Ca': 4.0, 'Al': 4.0, 'Si': 2.0, 'O': 14.0}",24,0.000239762708332,"['Al', 'Ca', 'O', 'Si']",308.182816408042
26342,mp-554248,KNaMn(Si2O5)2,3.0189,"{'K': 2.0, 'Na': 2.0, 'Mn': 2.0, 'Si': 8.0, 'O': 20.0}",34,0,"['K', 'Mn', 'Na', 'O', 'Si']",494.083244943369
26390,mp-6660,BaNaBO3,3.6487,"{'B': 2.0, 'O': 6.0, 'Na': 2.0, 'Ba': 2.0}",12,0,"['B', 'Ba', 'Na', 'O']",169.065222669032
26486,mp-973966,LiIn(IO3)4,3.0477,"{'Li': 1.0, 'In': 1.0, 'I': 4.0, 'O': 12.0}",18,0,"['Li', 'In', 'I', 'O']",284.18107379299
26666,mp-1210420,Na3InF6,5.1378,"{'Na': 6.0, 'In': 2.0, 'F': 12.0}",20,0,"['F', 'In', 'Na']",283.890920074482
26692,mp-1214839,Al3Bi(BO3)4,4.0925,"{'Al': 3.0, 'Bi': 1.0, 'B': 4.0, 'O': 12.0}",20,0.008335527199991,"['Al', 'B', 'Bi', 'O']",188.816577327247
26802,mp-17636,K3Na(WO4)2,4.6674,"{'O': 16.0, 'Na': 2.0, 'K': 6.0, 'W': 4.0}",28,0.004139070178575,"['K', 'Na', 'O', 'W']",517.197943196441
26826,mp-27936,Na2SbF5,4.8258,"{'F': 20.0, 'Na': 8.0, 'Sb': 4.0}",32,0,"['F', 'Na', 'Sb']",522.754662560838
26860,mp-5504,BaCO3,4.3838,"{'C': 4.0, 'O': 12.0, 'Ba': 4.0}",20,0,"['Ba', 'C', 'O']",319.71142866279
26863,mp-556026,VOF3,3.6497,"{'V': 4.0, 'O': 4.0, 'F': 12.0}",20,0,"['F', 'O', 'V']",306.415248635335
26900,mp-674333,Na3PO4,3.9113,"{'Na': 6.0, 'P': 2.0, 'O': 8.0}",16,0.000397665,"['Na', 'O', 'P']",224.714049903098
27007,mp-1019528,Ba2Mg(BO2)6,5.2119,"{'Ba': 2.0, 'Mg': 1.0, 'B': 6.0, 'O': 12.0}",21,0.006277299523807,"['B', 'Ba', 'Mg', 'O']",251.766233579684
27065,mp-11601,NaErO2,4.0684,"{'O': 2.0, 'Na': 1.0, 'Er': 1.0}",4,0.001406534375,"['Er', 'Na', 'O']",55.4032493838517
27140,mp-1209282,Rb3ScF6,6.2529,"{'Rb': 6.0, 'Sc': 2.0, 'F': 12.0}",20,0,"['F', 'Rb', 'Sc']",404.466636441746
27218,mp-13190,KRb2GaF6,5.8895,"{'F': 6.0, 'K': 1.0, 'Ga': 1.0, 'Rb': 2.0}",10,0.0001493624,"['K', 'Rb', 'Ga', 'F']",180.191368774233
27229,mp-154,N2,7.3427,{'N': 8.0},8,8.88178419700125E-16,['N'],202.516640492157
27271,mp-23503,Na3InCl6,3.7821,"{'Na': 6.0, 'In': 2.0, 'Cl': 12.0}",20,0,"['Cl', 'In', 'Na']",534.820123755765
27302,mp-3125,K3Zn2F7,4.0941,"{'F': 7.0, 'K': 3.0, 'Zn': 2.0}",12,0,"['F', 'K', 'Zn']",184.130893555339
27317,mp-5038,CsGaS2,3.0547,"{'S': 4.0, 'Ga': 2.0, 'Cs': 2.0}",8,0,"['Cs', 'Ga', 'S']",264.985701451639
27357,mp-561260,Na2CaP2O7,4.9509,"{'Na': 4.0, 'Ca': 2.0, 'P': 4.0, 'O': 14.0}",24,0,"['Ca', 'Na', 'O', 'P']",327.958695908466
27389,mp-6597,CsLiSO4,5.3584,"{'Li': 4.0, 'O': 16.0, 'S': 4.0, 'Cs': 4.0}",28,0.003279538214287,"['Cs', 'Li', 'O', 'S']",478.508129247085
27418,mp-7385,K2Be2PbF8,5.5575,"{'Be': 2.0, 'F': 8.0, 'K': 2.0, 'Pb': 1.0}",13,0.003123740384615,"['Be', 'F', 'K', 'Pb']",183.396499724691
27455,mp-770968,Na3NiPCO7,4.0053,"{'Na': 6.0, 'Ni': 2.0, 'P': 2.0, 'C': 2.0, 'O': 14.0}",26,0,"['C', 'Na', 'Ni', 'O', 'P']",307.891224368582
27474,mp-7886,Cs2RbYF6,6.2112,"{'F': 6.0, 'Rb': 1.0, 'Y': 1.0, 'Cs': 2.0}",10,0,"['Cs', 'F', 'Rb', 'Y']",236.422857518347
27475,mp-8430,KLiS,3.0582,"{'Li': 2.0, 'S': 2.0, 'K': 2.0}",6,0,"['K', 'Li', 'S']",132.011018162241
27489,mp-9583,K2ZnF4,4.3556,"{'F': 4.0, 'K': 2.0, 'Zn': 1.0}",7,0,"['K', 'Zn', 'F']",113.756109050276
27504,mp-1019796,K4P2O7,3.7409,"{'K': 8.0, 'P': 4.0, 'O': 14.0}",26,0,"['K', 'O', 'P']",471.909097083647
27601,mp-1191856,In2As2Cl2O5,3.1427,"{'In': 4.0, 'As': 4.0, 'Cl': 4.0, 'O': 10.0}",22,0,"['As', 'Cl', 'In', 'O']",416.672871409498
27645,mp-1214475,Ba3Ta2ZnO9,3.3983,"{'Ba': 3.0, 'Ta': 2.0, 'Zn': 1.0, 'O': 9.0}",15,0,"['Ba', 'O', 'Ta', 'Zn']",213.106930418459
27705,mp-18848,Sr2MgWO6,3.2644,"{'O': 6.0, 'Mg': 1.0, 'Sr': 2.0, 'W': 1.0}",10,0.009175207999999,"['Sr', 'Mg', 'W', 'O']",129.383128003405
27706,mp-18968,Li2FeSiO4,3.1236,"{'Li': 4.0, 'O': 8.0, 'Si': 2.0, 'Fe': 2.0}",16,0.0005566096875,"['Li', 'Fe', 'Si', 'O']",172.094367058293
27736,mp-30161,Si2CN4,4.3745,"{'C': 2.0, 'N': 8.0, 'Si': 4.0}",14,0,"['Si', 'C', 'N']",189.05302071019
27743,mp-3795,NaZnF3,3.7676,"{'F': 12.0, 'Na': 4.0, 'Zn': 4.0}",20,0,"['Na', 'Zn', 'F']",246.256165624513
27762,mp-554831,Yb4Cl6O,5.1816,"{'Yb': 8.0, 'Cl': 12.0, 'O': 2.0}",22,0,"['Cl', 'O', 'Yb']",474.133153642752
27769,mp-556440,CaZr4(PO4)6,4.1816,"{'Ca': 1.0, 'Zr': 4.0, 'P': 6.0, 'O': 24.0}",35,0,"['Ca', 'O', 'P', 'Zr']",529.168183782165
27787,mp-561104,Ga(IO3)3,3.3088,"{'Ga': 2.0, 'I': 6.0, 'O': 18.0}",26,0,"['Ga', 'I', 'O']",399.745865206548
27788,mp-561398,NaAl(MoO4)2,3.6934,"{'Na': 2.0, 'Al': 2.0, 'Mo': 4.0, 'O': 16.0}",24,0.003947703576389,"['Al', 'Mo', 'Na', 'O']",357.387956506263
27876,mp-7257,K3NaP2(O3F)2,4.5043,"{'O': 6.0, 'F': 2.0, 'Na': 1.0, 'P': 2.0, 'K': 3.0}",14,0.001459889107141,"['F', 'K', 'Na', 'O', 'P']",221.79035238026
28109,mp-1207659,YAg(WO4)2,3.1649,"{'Y': 2.0, 'Ag': 2.0, 'W': 4.0, 'O': 16.0}",24,0,"['Ag', 'O', 'W', 'Y']",319.97615338749
28249,mp-542136,Na3PSO3,3.8977,"{'Na': 6.0, 'O': 6.0, 'P': 2.0, 'S': 2.0}",16,0,"['Na', 'P', 'S', 'O']",247.987251433187
28251,mp-546711,CsClO4,5.3068,"{'O': 4.0, 'Cs': 1.0, 'Cl': 1.0}",6,0.009750460833334,"['Cs', 'Cl', 'O']",133.1363106366
28264,mp-557047,Cs2NaCrF6,3.9523,"{'F': 12.0, 'Na': 2.0, 'Cr': 2.0, 'Cs': 4.0}",20,0,"['Cr', 'Cs', 'F', 'Na']",361.552764225017
28273,mp-560441,BaZn2Si2O7,3.3054,"{'Ba': 2.0, 'Zn': 4.0, 'Si': 4.0, 'O': 14.0}",24,0,"['Ba', 'O', 'Si', 'Zn']",349.752644578605
28294,mp-642824,SF6,5.9606,"{'S': 3.0, 'F': 18.0}",21,0.006541493333334,"['F', 'S']",285.133934419787
28316,mp-7380,CsRb2SiF7,5.726,"{'F': 14.0, 'Si': 2.0, 'Rb': 4.0, 'Cs': 2.0}",22,0.00250264590909,"['Cs', 'F', 'Rb', 'Si']",404.686169674886
28421,mp-8590,K2HfF6,6.7637,"{'F': 12.0, 'K': 4.0, 'Hf': 2.0}",18,0.004185908888887,"['F', 'Hf', 'K']",382.278949392907
28592,mp-1105618,KBe2BO3F2,5.9928,"{'K': 2.0, 'Be': 4.0, 'B': 2.0, 'O': 6.0, 'F': 4.0}",18,1.82733333389251E-05,"['B', 'Be', 'F', 'K', 'O']",224.970715584786
28705,mp-1203440,LiZnSO4F,4.274,"{'Li': 4.0, 'Zn': 4.0, 'S': 4.0, 'O': 16.0, 'F': 4.0}",32,0,"['F', 'Li', 'O', 'S', 'Zn']",365.516045553674
28712,mp-1206528,Cs2MnF4,3.4569,"{'Cs': 2.0, 'Mn': 1.0, 'F': 4.0}",7,0,"['Cs', 'F', 'Mn']",145.516552361741
28748,mp-1221036,NaErF4,6.7876,"{'Na': 1.0, 'Er': 1.0, 'F': 4.0}",6,0.001847033333331,"['Er', 'F', 'Na']",78.6177323567769
28769,mp-1227854,Ca3Mg2Fe(CO3)6,3.9175,"{'Ca': 3.0, 'Mg': 2.0, 'Fe': 1.0, 'C': 6.0, 'O': 18.0}",30,0,"['C', 'Ca', 'Fe', 'Mg', 'O']",334.93737723295
28786,mp-15704,BeSiN2,3.5623,"{'Be': 2.0, 'N': 4.0, 'Si': 2.0}",8,0.001184796875,"['Be', 'Si', 'N']",67.7259238095029
28846,mp-554252,K2NaCrF6,3.9909,"{'F': 6.0, 'Na': 1.0, 'K': 2.0, 'Cr': 1.0}",10,0,"['K', 'Na', 'Cr', 'F']",150.117163409282
28859,mp-558984,GaTeO3F,3.6787,"{'Ga': 4.0, 'Te': 4.0, 'O': 12.0, 'F': 4.0}",24,0,"['F', 'Ga', 'O', 'Te']",322.713304539871
28860,mp-559627,LiP3PbO9,4.6984,"{'Li': 2.0, 'P': 6.0, 'Pb': 2.0, 'O': 18.0}",28,0.006835915327379,"['Li', 'O', 'P', 'Pb']",369.259900988043
28861,mp-560445,SrEr2O4,3.7705,"{'Sr': 4.0, 'Er': 8.0, 'O': 16.0}",28,0,"['Er', 'O', 'Sr']",408.351372021304
28863,mp-561317,Rb2NiF4,4.5279,"{'F': 4.0, 'Ni': 1.0, 'Rb': 2.0}",7,0,"['Rb', 'Ni', 'F']",119.801768931051
29107,mp-1192556,RbInTe3O8,3.0265,"{'Rb': 2.0, 'In': 2.0, 'Te': 6.0, 'O': 16.0}",26,0,"['In', 'O', 'Rb', 'Te']",477.802000190349
29172,mp-1208777,Sr3NbGa3(SiO7)2,3.4208,"{'Sr': 3.0, 'Nb': 1.0, 'Ga': 3.0, 'Si': 2.0, 'O': 14.0}",23,0,"['Ga', 'Nb', 'O', 'Si', 'Sr']",315.22009745944
29233,mp-1218879,Sr2Al2SiO7,4.1902,"{'Sr': 4.0, 'Al': 4.0, 'Si': 2.0, 'O': 14.0}",24,0,"['Al', 'O', 'Si', 'Sr']",334.188370892391
29260,mp-1227786,Ca2TiSi2SnO10,3.0967,"{'Ca': 4.0, 'Ti': 2.0, 'Si': 4.0, 'Sn': 2.0, 'O': 20.0}",32,0.006518498281253,"['Ca', 'O', 'Si', 'Sn', 'Ti']",394.168478428772
29289,mp-18099,BaSbF5,4.7551,"{'F': 20.0, 'Sb': 4.0, 'Ba': 4.0}",28,0,"['Ba', 'F', 'Sb']",523.717191240004
29291,mp-19163,SrWO4,4.6567,"{'O': 8.0, 'Sr': 2.0, 'W': 2.0}",12,0,"['Sr', 'W', 'O']",184.364573825701
29313,mp-27456,BaBr2,4.3731,"{'Ba': 8.0, 'Br': 16.0}",24,0,"['Ba', 'Br']",859.101897760925
29413,mp-755644,Mn2P2O7,3.2987,"{'Mn': 4.0, 'P': 4.0, 'O': 14.0}",22,0.001054866363637,"['Mn', 'O', 'P']",259.830251341318
29453,mp-850362,Li4MnFe3(BO3)4,3.1616,"{'Li': 4.0, 'Mn': 1.0, 'Fe': 3.0, 'B': 4.0, 'O': 12.0}",24,0.004565309236111,"['B', 'Fe', 'Li', 'Mn', 'O']",250.84354589207
29625,mp-1205677,Sr2NbGaO6,3.2468,"{'Sr': 2.0, 'Nb': 1.0, 'Ga': 1.0, 'O': 6.0}",10,0.008401025625012,"['Ga', 'Nb', 'O', 'Sr']",127.598815986973
29686,mp-1222376,LiZnBO3,3.5125,"{'Li': 2.0, 'Zn': 2.0, 'B': 2.0, 'O': 6.0}",12,0.008390397083343,"['B', 'Li', 'O', 'Zn']",124.061883640533
29773,mp-14853,Ba3Er4O9,3.2731,"{'O': 9.0, 'Ba': 3.0, 'Er': 4.0}",16,0,"['Ba', 'Er', 'O']",273.050257833759
29789,mp-17891,NaYSiO4,4.2828,"{'O': 16.0, 'Na': 4.0, 'Si': 4.0, 'Y': 4.0}",28,0,"['Na', 'O', 'Si', 'Y']",379.791175594945
29794,mp-19112,FeSO4,4.1128,"{'O': 8.0, 'S': 2.0, 'Fe': 2.0}",12,0.001334003749998,"['Fe', 'S', 'O']",145.313061340474
29834,mp-4185,Na3ScF6,6.842,"{'F': 12.0, 'Na': 6.0, 'Sc': 2.0}",20,0,"['F', 'Na', 'Sc']",273.813387699111
29837,mp-504948,LiScGeO4,3.9614,"{'Li': 4.0, 'Sc': 4.0, 'Ge': 4.0, 'O': 16.0}",28,0.007609172857142,"['Ge', 'Li', 'O', 'Sc']",327.779944009343
29870,mp-571642,CaCl2,5.5969,"{'Ca': 4.0, 'Cl': 8.0}",12,0.001105512500001,"['Ca', 'Cl']",341.280772873801
29884,mp-6591,SrLiAlF6,7.31,"{'Li': 2.0, 'F': 12.0, 'Al': 2.0, 'Sr': 2.0}",18,0,"['Al', 'F', 'Li', 'Sr']",239.224783953366
30109,mp-1193939,Te2P2O9,3.5296,"{'Te': 4.0, 'P': 4.0, 'O': 18.0}",26,0,"['O', 'P', 'Te']",356.183999323746
30143,mp-1209460,Rb2Mo(OF2)2,3.6041,"{'Rb': 4.0, 'Mo': 2.0, 'O': 4.0, 'F': 8.0}",18,0.002690380555557,"['F', 'Mo', 'O', 'Rb']",315.558336329618
30213,mp-19123,Rb2LiVO4,3.9675,"{'Li': 2.0, 'O': 8.0, 'V': 2.0, 'Rb': 4.0}",16,0,"['Li', 'O', 'Rb', 'V']",286.962947708841
30229,mp-23220,YbCl2,5.5408,"{'Cl': 16.0, 'Yb': 8.0}",24,0.009572099166666,"['Cl', 'Yb']",593.096436417096
30234,mp-23632,Ca2BN2Cl,3.3376,"{'B': 4.0, 'N': 8.0, 'Cl': 4.0, 'Ca': 8.0}",24,0,"['B', 'Ca', 'Cl', 'N']",415.958204224547
30245,mp-27192,CsBe2F5,7.1811,"{'Cs': 4.0, 'Be': 8.0, 'F': 20.0}",32,0,"['Be', 'Cs', 'F']",523.257141538515
30257,mp-30023,Ba(AlCl4)2,5.3836,"{'Ba': 2.0, 'Al': 4.0, 'Cl': 16.0}",22,0,"['Al', 'Ba', 'Cl']",735.188496534344
30277,mp-4967,MgSO4,5.5305,"{'O': 16.0, 'Mg': 4.0, 'S': 4.0}",24,0.001066000416666,"['Mg', 'O', 'S']",284.136745138616
30292,mp-540633,RbNb(GeO3)3,3.1686,"{'Rb': 2.0, 'Nb': 2.0, 'Ge': 6.0, 'O': 18.0}",28,0,"['Ge', 'Nb', 'O', 'Rb']",459.770587319804
30301,mp-542967,SnSO4,4.1316,"{'Sn': 4.0, 'S': 4.0, 'O': 16.0}",24,0,"['O', 'S', 'Sn']",363.921297281968
30311,mp-555234,RbSbBrF3,3.7336,"{'Rb': 2.0, 'Sb': 2.0, 'Br': 2.0, 'F': 6.0}",12,0,"['Br', 'F', 'Rb', 'Sb']",287.523233462424
30336,mp-560929,Na3CrF6,4.0586,"{'F': 12.0, 'Na': 6.0, 'Cr': 2.0}",20,0,"['Cr', 'F', 'Na']",260.230831911024
30411,mp-754521,Sr(IO3)2,3.4162,"{'Sr': 2.0, 'I': 4.0, 'O': 12.0}",18,0.004504101388889,"['I', 'O', 'Sr']",323.569373017227
30563,mp-1167,CF4,9.0594,"{'C': 2.0, 'F': 8.0}",10,0,"['C', 'F']",147.24719485817
30608,mp-1189528,Ca2ScSbO6,3.6563,"{'Ca': 4.0, 'Sc': 2.0, 'Sb': 2.0, 'O': 12.0}",20,0,"['Ca', 'O', 'Sb', 'Sc']",250.99911704454
30749,mp-27275,Li3BO3,5.147,"{'Li': 12.0, 'B': 4.0, 'O': 12.0}",28,0,"['Li', 'B', 'O']",252.858759294224
30752,mp-28405,S(ClO)2,3.6546,"{'O': 4.0, 'S': 2.0, 'Cl': 4.0}",10,0,"['Cl', 'O', 'S']",259.940533529094
30759,mp-30206,CsClO4,5.444,"{'O': 16.0, 'Cl': 4.0, 'Cs': 4.0}",24,0,"['Cs', 'Cl', 'O']",494.174882497346
30853,mp-752730,Ba2GeO4,3.9678,"{'Ba': 8.0, 'Ge': 4.0, 'O': 16.0}",28,0.005146450952379,"['Ba', 'Ge', 'O']",493.650166326166
30875,mp-755500,Li4AlCr3O8,3.1845,"{'Li': 4.0, 'Al': 1.0, 'Cr': 3.0, 'O': 8.0}",16,0.007995678593751,"['Al', 'Cr', 'Li', 'O']",143.838200740461
30879,mp-755895,Ba3Zr2O7,3.031,"{'Ba': 3.0, 'Zr': 2.0, 'O': 7.0}",12,0,"['Ba', 'Zr', 'O']",200.171808929811
30924,mp-766463,Na3GaB4O9,4.3701,"{'Na': 6.0, 'Ga': 2.0, 'B': 8.0, 'O': 18.0}",34,0,"['B', 'Ga', 'Na', 'O']",374.899816585071
30940,mp-773519,Li4Mn3Fe(PO4)4,3.4465,"{'Li': 4.0, 'Mn': 3.0, 'Fe': 1.0, 'P': 4.0, 'O': 16.0}",28,0.000863384821452,"['Fe', 'Li', 'Mn', 'O', 'P']",309.424423424542
31217,mp-1218419,SrCaHf2O6,4.3692,"{'Sr': 2.0, 'Ca': 2.0, 'Hf': 4.0, 'O': 12.0}",20,0.008838974249999,"['Ca', 'Hf', 'O', 'Sr']",269.3753834595
31298,mp-29598,NaP4N7,4.2315,"{'N': 14.0, 'Na': 2.0, 'P': 8.0}",24,0,"['N', 'Na', 'P']",270.721518820135
31319,mp-5012,Li2SiO3,5.0765,"{'Li': 4.0, 'O': 6.0, 'Si': 2.0}",12,0,"['Li', 'Si', 'O']",122.55616623204
31332,mp-557133,Cs2KMoF6,4.113,"{'F': 6.0, 'K': 1.0, 'Mo': 1.0, 'Cs': 2.0}",10,0,"['Cs', 'K', 'Mo', 'F']",208.625720737932
31434,mp-775855,NaMnPO4,3.2541,"{'Na': 4.0, 'Mn': 4.0, 'P': 4.0, 'O': 16.0}",28,0,"['Mn', 'Na', 'O', 'P']",345.512329641204
31467,mp-9230,KAlAs2O7,3.0235,"{'O': 14.0, 'Al': 2.0, 'K': 2.0, 'As': 4.0}",22,0,"['Al', 'As', 'K', 'O']",311.631837628239
31628,mp-1190839,YMo2O7F,3.1638,"{'Y': 2.0, 'Mo': 4.0, 'O': 14.0, 'F': 2.0}",22,0,"['F', 'Mo', 'O', 'Y']",335.158257946089
31700,mp-1207607,YScSi2O7,4.5301,"{'Y': 1.0, 'Sc': 1.0, 'Si': 2.0, 'O': 7.0}",11,0.001280514545455,"['O', 'Sc', 'Si', 'Y']",137.873547226386
31799,mp-19232,K2CrO4,3.0699,"{'O': 16.0, 'K': 8.0, 'Cr': 4.0}",28,0,"['Cr', 'K', 'O']",495.643135161226
31821,mp-28850,MnAlF5,4.4066,"{'Mn': 2.0, 'Al': 2.0, 'F': 10.0}",14,0.006578472142858,"['Al', 'F', 'Mn']",176.822660146244
31829,mp-3520,Y2SiO5,4.7718,"{'O': 20.0, 'Si': 4.0, 'Y': 8.0}",32,0,"['O', 'Si', 'Y']",444.282737421917
31830,mp-3978,SrSiO3,4.6095,"{'O': 18.0, 'Si': 6.0, 'Sr': 6.0}",30,0,"['O', 'Si', 'Sr']",461.888389698586
31852,mp-557689,CaAl2B2O7,4.8228,"{'Ca': 2.0, 'Al': 4.0, 'B': 4.0, 'O': 14.0}",24,0,"['Al', 'B', 'Ca', 'O']",321.82830384586
31877,mp-6179,KLiSO4,5.3235,"{'Li': 2.0, 'O': 8.0, 'S': 2.0, 'K': 2.0}",14,0.000189104999998,"['K', 'Li', 'S', 'O']",207.598245130924
31905,mp-746030,NaFePO4,3.2921,"{'Na': 4.0, 'Fe': 4.0, 'P': 4.0, 'O': 16.0}",28,0.002531412500002,"['Fe', 'Na', 'O', 'P']",333.168727761161
31909,mp-753571,LiVF6,3.0732,"{'Li': 1.0, 'V': 1.0, 'F': 6.0}",8,0,"['F', 'Li', 'V']",115.797630814873
32052,mp-1113595,Cs2ErAgCl6,3.6313,"{'Cs': 2.0, 'Er': 1.0, 'Ag': 1.0, 'Cl': 6.0}",10,0,"['Ag', 'Cl', 'Cs', 'Er']",316.614571394036
32145,mp-1213104,CsSrBr3,4.5591,"{'Cs': 4.0, 'Sr': 4.0, 'Br': 12.0}",20,0,"['Br', 'Cs', 'Sr']",844.870334420868
32199,mp-1223526,KBaB(PO4)2,5.3132,"{'K': 2.0, 'Ba': 2.0, 'B': 2.0, 'P': 4.0, 'O': 16.0}",26,0,"['B', 'Ba', 'K', 'O', 'P']",386.561032281924
32229,mp-1227671,Ca4Al6MoO16,3.897,"{'Ca': 4.0, 'Al': 6.0, 'Mo': 1.0, 'O': 16.0}",27,0.005735262222222,"['Al', 'Ca', 'Mo', 'O']",416.288742840665
32231,mp-1227883,BaNaPO4,4.6078,"{'Ba': 2.0, 'Na': 2.0, 'P': 2.0, 'O': 8.0}",14,0,"['Ba', 'Na', 'O', 'P']",205.582915771899
32259,mp-14355,Cs2SrP2O7,4.9488,"{'O': 14.0, 'P': 4.0, 'Sr': 2.0, 'Cs': 4.0}",24,0,"['Cs', 'O', 'P', 'Sr']",434.237061112779
32268,mp-18121,Fe2PO4F,3.4341,"{'O': 16.0, 'F': 4.0, 'P': 4.0, 'Fe': 8.0}",32,0,"['F', 'Fe', 'O', 'P']",382.763214223051
32273,mp-18764,Ba2SrWO6,3.2569,"{'O': 6.0, 'Sr': 1.0, 'Ba': 2.0, 'W': 1.0}",10,0,"['Ba', 'O', 'Sr', 'W']",165.180711174101
32277,mp-19005,Y6WO12,3.4356,"{'O': 12.0, 'Y': 6.0, 'W': 1.0}",19,0,"['Y', 'W', 'O']",265.263862205632
32279,mp-19308,Li2NiO2,3.71,"{'Li': 4.0, 'O': 4.0, 'Ni': 2.0}",10,0.001872203,"['Li', 'Ni', 'O']",86.1797858667383
32303,mp-2416,YF3,7.5338,"{'F': 12.0, 'Y': 4.0}",16,0,"['F', 'Y']",202.820368454751