,task_id,pretty_formula,band_gap,unit_cell_formula,nsites,e_above_hull,elements,volume
15874,mp-556209,RbLiMoO4,4.5436,"{'Rb': 2.0, 'Li': 2.0, 'Mo': 2.0, 'O': 8.0}",14,0,"['Li', 'Mo', 'O', 'Rb']",275.912939320518
15879,mp-5614,Li3BS3,3.0526,"{'Li': 12.0, 'B': 4.0, 'S': 12.0}",28,0,"['B', 'Li', 'S']",515.639159477644
15880,mp-561567,Cs4CdNi3F12,4.428,"{'Cs': 4.0, 'Cd': 1.0, 'Ni': 3.0, 'F': 12.0}",20,0,"['Cd', 'Cs', 'F', 'Ni']",348.968702759783
15882,mp-562523,Cs3Mo2(O2F)3,3.9928,"{'Cs': 6.0, 'Mo': 4.0, 'O': 12.0, 'F': 6.0}",28,0,"['Cs', 'F', 'Mo', 'O']",580.879463083763
15927,mp-753611,PCl3O,4.5483,"{'P': 4.0, 'Cl': 12.0, 'O': 4.0}",20,0.004129657500001,"['Cl', 'O', 'P']",686.747420629396
15965,mp-776084,BaSiO3,4.5424,"{'Ba': 6.0, 'Si': 6.0, 'O': 18.0}",30,0,"['Ba', 'O', 'Si']",529.94365802915
15980,mp-974035,Pb3I2(Cl2O3)2,3.2549,"{'Pb': 6.0, 'I': 4.0, 'Cl': 8.0, 'O': 12.0}",30,0.007795018166668,"['Cl', 'I', 'O', 'Pb']",637.643793576631
15990,mp-989514,Cs2NaSbCl6,3.0683,"{'Cs': 2.0, 'Na': 1.0, 'Sb': 1.0, 'Cl': 6.0}",10,0.001242204499999,"['Cs', 'Na', 'Sb', 'Cl']",327.699789141584
16002,mp-1019526,Ba3Si2(B3O8)2,5.3993,"{'Ba': 3.0, 'Si': 2.0, 'B': 6.0, 'O': 16.0}",27,0,"['B', 'Ba', 'O', 'Si']",320.961616425583
16315,mp-27854,TaCl4F,3.0931,"{'F': 4.0, 'Cl': 16.0, 'Ta': 4.0}",24,0,"['Cl', 'F', 'Ta']",743.076936679807
16326,mp-31408,Al4(B2O5)3,5.8123,"{'B': 6.0, 'O': 15.0, 'Al': 4.0}",25,0,"['Al', 'B', 'O']",252.960621111623
16344,mp-555215,Mg2Mn(PO4)2,3.5286,"{'Mg': 4.0, 'Mn': 2.0, 'P': 4.0, 'O': 16.0}",26,0,"['Mg', 'Mn', 'O', 'P']",341.920459259681
16351,mp-558133,Rb2MnF6,3.2318,"{'F': 12.0, 'Mn': 2.0, 'Rb': 4.0}",18,0.004422020000015,"['F', 'Mn', 'Rb']",315.571726928931
16375,mp-614603,CsI,3.8572,"{'Cs': 1.0, 'I': 1.0}",2,0,"['Cs', 'I']",121.358802696626
16391,mp-6613,Ba2YTaO6,3.362,"{'O': 6.0, 'Y': 1.0, 'Ba': 2.0, 'Ta': 1.0}",10,0.001596104000001,"['Ba', 'Y', 'Ta', 'O']",155.961402146992
16427,mp-755376,Er2TeO6,3.033,"{'Er': 6.0, 'Te': 3.0, 'O': 18.0}",27,0.001150948148148,"['Er', 'O', 'Te']",372.706277628705
16432,mp-756981,K2SbPCO7,3.8399,"{'K': 4.0, 'Sb': 2.0, 'P': 2.0, 'C': 2.0, 'O': 14.0}",24,0,"['C', 'K', 'O', 'P', 'Sb']",419.13246448707
16621,mp-1204402,LiAl(CN2)2,3.5411,"{'Li': 4.0, 'Al': 4.0, 'C': 8.0, 'N': 16.0}",32,0,"['Al', 'C', 'Li', 'N']",330.232522138796
16667,mp-1220768,NaYF4,7.1964,"{'Na': 3.0, 'Y': 3.0, 'F': 12.0}",18,0.002289700833331,"['F', 'Na', 'Y']",227.081606579642
16800,mp-29103,CsAlBr4,4.393,"{'Al': 4.0, 'Br': 16.0, 'Cs': 4.0}",24,0,"['Al', 'Br', 'Cs']",999.715839355289
16806,mp-30273,AcClO,4.4477,"{'O': 2.0, 'Cl': 2.0, 'Ac': 2.0}",6,0,"['Ac', 'Cl', 'O']",131.046117797167
16844,mp-556139,BaZr(PO4)2,4.1552,"{'Ba': 1.0, 'Zr': 1.0, 'P': 2.0, 'O': 8.0}",12,0,"['Ba', 'O', 'P', 'Zr']",187.395712397543
16904,mp-7020,LiYO2,4.1082,"{'Li': 4.0, 'O': 8.0, 'Y': 4.0}",16,0,"['Li', 'O', 'Y']",213.86709074813
17265,mp-541508,KVPbO4,3.3797,"{'K': 4.0, 'V': 4.0, 'Pb': 4.0, 'O': 16.0}",28,0,"['K', 'O', 'Pb', 'V']",478.340977921337
17277,mp-555305,NaNb(OF)2,3.1332,"{'Na': 4.0, 'Nb': 4.0, 'O': 8.0, 'F': 8.0}",24,0,"['F', 'Na', 'Nb', 'O']",341.573750573278
17365,mp-676851,KNO3,3.0607,"{'K': 1.0, 'N': 1.0, 'O': 3.0}",5,0.007464319499999,"['K', 'N', 'O']",90.5327782783649
17461,mp-776404,ZrO2,3.4629,"{'Zr': 8.0, 'O': 16.0}",24,0.009881728749999,"['Zr', 'O']",293.838166518315
17642,mp-1211247,KYBeF6,7.3892,"{'K': 2.0, 'Y': 2.0, 'Be': 2.0, 'F': 12.0}",18,0,"['Be', 'F', 'K', 'Y']",249.140113007082
17658,mp-1218494,Sr3CaHf4O12,4.1765,"{'Sr': 3.0, 'Ca': 1.0, 'Hf': 4.0, 'O': 12.0}",20,0.006633343374997,"['Ca', 'Hf', 'O', 'Sr']",274.146933494182
17687,mp-1228851,BP5(Pb3O10)2,3.8172,"{'B': 1.0, 'P': 5.0, 'Pb': 6.0, 'O': 20.0}",32,0.004461511171876,"['B', 'O', 'P', 'Pb']",503.396171331278
17714,mp-17360,Ni2Te3O8,3.0333,"{'O': 16.0, 'Ni': 4.0, 'Te': 6.0}",26,0,"['Ni', 'O', 'Te']",381.675000915595
17716,mp-18315,Cs6Si2O7,3.1656,"{'O': 14.0, 'Si': 4.0, 'Cs': 12.0}",30,0,"['Cs', 'O', 'Si']",690.754376440384
17760,mp-504611,Cs2NaFeF6,3.8015,"{'Cs': 4.0, 'Na': 2.0, 'Fe': 2.0, 'F': 12.0}",20,0,"['Cs', 'F', 'Fe', 'Na']",363.890295913187
17766,mp-540949,Ba3SrNb2O9,3.4284,"{'Ba': 6.0, 'Sr': 2.0, 'Nb': 4.0, 'O': 18.0}",30,0,"['Ba', 'Nb', 'O', 'Sr']",515.043710111746
17784,mp-558941,LiYSiO4,5.1083,"{'Li': 4.0, 'Y': 4.0, 'Si': 4.0, 'O': 16.0}",28,0,"['Li', 'O', 'Si', 'Y']",342.873880620765
17787,mp-559653,SrCa(CO3)2,4.7733,"{'Sr': 2.0, 'Ca': 2.0, 'C': 4.0, 'O': 12.0}",20,0.009002431750001,"['C', 'Ca', 'O', 'Sr']",255.946474672726
17816,mp-6406,Na2MgSiO4,3.7654,"{'O': 8.0, 'Na': 4.0, 'Mg': 2.0, 'Si': 2.0}",16,0,"['Mg', 'Na', 'O', 'Si']",209.426561705149
17885,mp-763217,LiNiPO4,3.9563,"{'Li': 4.0, 'Ni': 4.0, 'P': 4.0, 'O': 16.0}",28,0.001454188928571,"['Li', 'Ni', 'O', 'P']",283.633189884318
17904,mp-770128,Cs6Ti2O7,3.333,"{'Cs': 12.0, 'Ti': 4.0, 'O': 14.0}",30,0,"['Cs', 'O', 'Ti']",754.280280722677
17967,mp-9166,MgCN2,3.759,"{'C': 1.0, 'N': 2.0, 'Mg': 1.0}",4,0,"['Mg', 'C', 'N']",44.7731797023314
17968,mp-9610,Li2CN2,3.7195,"{'Li': 2.0, 'C': 1.0, 'N': 2.0}",5,0,"['Li', 'C', 'N']",60.5185497489824
18088,mp-11014,K2TeOF4,4.8931,"{'O': 2.0, 'F': 8.0, 'K': 4.0, 'Te': 2.0}",16,0.005367812656254,"['F', 'K', 'O', 'Te']",309.260102462276
18113,mp-1113016,Cs2LiInF6,5.227,"{'Cs': 2.0, 'Li': 1.0, 'In': 1.0, 'F': 6.0}",10,0,"['Cs', 'F', 'In', 'Li']",173.938729873758
18172,mp-1193084,BaY2Si2O7F2,5.0262,"{'Ba': 2.0, 'Y': 4.0, 'Si': 4.0, 'O': 14.0, 'F': 4.0}",28,0.005262477500001,"['Ba', 'F', 'O', 'Si', 'Y']",387.120093778422
18190,mp-1199855,ZnSb2Cl2O3,3.6856,"{'Zn': 4.0, 'Sb': 8.0, 'Cl': 8.0, 'O': 12.0}",32,0,"['Cl', 'O', 'Sb', 'Zn']",655.100526308656
18215,mp-1210433,Na2MgGaF7,5.7506,"{'Na': 4.0, 'Mg': 2.0, 'Ga': 2.0, 'F': 14.0}",22,0,"['F', 'Ga', 'Mg', 'Na']",281.473507326964
18292,mp-15141,NaZr2ZnF11,5.73,"{'F': 11.0, 'Na': 1.0, 'Zn': 1.0, 'Zr': 2.0}",15,0,"['F', 'Na', 'Zn', 'Zr']",224.115704852172
18303,mp-18918,ZnWO4,3.2214,"{'O': 8.0, 'Zn': 2.0, 'W': 2.0}",12,0,"['Zn', 'W', 'O']",138.834294748021
18355,mp-546500,NaCNO,4.4908,"{'N': 1.0, 'Na': 1.0, 'C': 1.0, 'O': 1.0}",4,0,"['Na', 'C', 'N', 'O']",59.1621407911777
18415,mp-752423,Na2TiO3,3.2134,"{'Na': 8.0, 'Ti': 4.0, 'O': 12.0}",24,0.009737824999999,"['Na', 'O', 'Ti']",272.871767301589
18434,mp-7571,KNbF6,5.1353,"{'F': 12.0, 'K': 2.0, 'Nb': 2.0}",16,0,"['F', 'K', 'Nb']",288.279915185148
18456,mp-770341,Li4AlCr3O8,3.097,"{'Li': 4.0, 'Al': 1.0, 'Cr': 3.0, 'O': 8.0}",16,0.009207376718751,"['Al', 'Cr', 'Li', 'O']",143.848583182636
18525,mp-1080575,SrZrO3,3.4747,"{'Sr': 2.0, 'Zr': 2.0, 'O': 6.0}",10,0.005804199,"['O', 'Sr', 'Zr']",143.651373500506
18625,mp-1195213,Bi2(SO4)3,4.2229,"{'Bi': 4.0, 'S': 6.0, 'O': 24.0}",34,0.007388299411764,"['Bi', 'O', 'S']",491.646664999328
18764,mp-1227451,Ca2CoSi4NiO12,3.0349,"{'Ca': 2.0, 'Co': 1.0, 'Si': 4.0, 'Ni': 1.0, 'O': 12.0}",20,0.007566818625,"['Ca', 'Co', 'Ni', 'O', 'Si']",227.859301121122
18771,mp-1238811,CsPb2Br5,3.0902,"{'Cs': 2.0, 'Pb': 4.0, 'Br': 10.0}",16,0.00175485875,"['Br', 'Cs', 'Pb']",595.205774385636
18806,mp-2131,SrN6,3.7752,"{'N': 12.0, 'Sr': 2.0}",14,0,"['N', 'Sr']",217.956246189921
18808,mp-22242,NaZr2FeF11,3.418,"{'F': 11.0, 'Na': 1.0, 'Fe': 1.0, 'Zr': 2.0}",15,0,"['F', 'Fe', 'Na', 'Zr']",226.955173200756
18839,mp-3654,RbCaF3,6.3974,"{'F': 3.0, 'Ca': 1.0, 'Rb': 1.0}",5,0,"['Rb', 'Ca', 'F']",92.1700442555277
18858,mp-558402,Mn2PClO4,3.1216,"{'Mn': 8.0, 'P': 4.0, 'Cl': 4.0, 'O': 16.0}",32,0,"['Cl', 'Mn', 'O', 'P']",471.345395491052
18923,mp-755689,ErClO,5.2496,"{'Er': 2.0, 'Cl': 2.0, 'O': 2.0}",6,0,"['Er', 'Cl', 'O']",143.375069594564
18950,mp-768808,Li4AlCr3O8,3.1805,"{'Li': 8.0, 'Al': 2.0, 'Cr': 6.0, 'O': 16.0}",32,0.008340435781251,"['Al', 'Cr', 'Li', 'O']",287.470351851802
18995,mp-999498,N2,3.9659,{'N': 4.0},4,8.88178419700125E-16,['N'],27.529147478874
19031,mp-1079088,NaAsF6,5.114,"{'Na': 1.0, 'As': 1.0, 'F': 6.0}",8,0,"['As', 'F', 'Na']",119.796171566405
19158,mp-1210352,Na2BeCl4,5.4526,"{'Na': 8.0, 'Be': 4.0, 'Cl': 16.0}",28,0,"['Be', 'Cl', 'Na']",679.961637156823
19274,mp-16432,Sr3(BO3)2,4.3938,"{'B': 4.0, 'O': 12.0, 'Sr': 6.0}",22,0,"['B', 'O', 'Sr']",308.474730992297
19278,mp-16872,RbLi2Ga2(BO3)3,3.6671,"{'Li': 4.0, 'B': 6.0, 'O': 18.0, 'Ga': 4.0, 'Rb': 2.0}",34,0.004591347194555,"['B', 'Ga', 'Li', 'O', 'Rb']",421.842084197734
19284,mp-17708,Ge3Sb2O9,3.0359,"{'O': 18.0, 'Ge': 6.0, 'Sb': 4.0}",28,0,"['Ge', 'O', 'Sb']",450.895067293945
19287,mp-18864,Rb2WO4,4.388,"{'O': 8.0, 'Rb': 4.0, 'W': 2.0}",14,0,"['O', 'Rb', 'W']",305.688487465981
19309,mp-22882,YbBr2,4.4989,"{'Br': 4.0, 'Yb': 2.0}",6,0.000397345000001,"['Yb', 'Br']",198.553714324796
19328,mp-28403,Ba2WO5,3.1532,"{'O': 20.0, 'Ba': 8.0, 'W': 4.0}",32,0,"['Ba', 'O', 'W']",515.170505679913
19331,mp-29232,ZrPb3F10,4.6766,"{'F': 20.0, 'Zr': 2.0, 'Pb': 6.0}",28,0.008433613571427,"['F', 'Pb', 'Zr']",423.633435927363
19432,mp-758209,Li2FeSiO4,3.0894,"{'Li': 8.0, 'Fe': 4.0, 'Si': 4.0, 'O': 16.0}",32,0.0053869503125,"['Fe', 'Li', 'O', 'Si']",352.518367144672
19467,mp-8271,Ba2Ca(BO2)6,4.9532,"{'B': 6.0, 'O': 12.0, 'Ca': 1.0, 'Ba': 2.0}",21,0,"['B', 'Ba', 'Ca', 'O']",274.851781956782
19524,mp-10572,NaPN2,4.6825,"{'N': 4.0, 'Na': 2.0, 'P': 2.0}",8,0,"['N', 'Na', 'P']",88.253026192115
19726,mp-18252,SrNi2(PO4)2,3.5283,"{'O': 16.0, 'P': 4.0, 'Ni': 4.0, 'Sr': 2.0}",26,0.002242246282052,"['Ni', 'O', 'P', 'Sr']",313.021931146652
19745,mp-23043,RbPb2Br5,3.045,"{'Br': 10.0, 'Rb': 2.0, 'Pb': 4.0}",16,0.004170716875,"['Br', 'Pb', 'Rb']",564.257319490848
19759,mp-27230,As2SO6,4.4079,"{'As': 4.0, 'S': 2.0, 'O': 12.0}",18,0,"['As', 'O', 'S']",281.923643833127
19760,mp-27317,SbAsF8,3.8908,"{'F': 16.0, 'As': 2.0, 'Sb': 2.0}",20,0,"['As', 'F', 'Sb']",334.618281691932
19774,mp-30301,LiClO4,5.7447,"{'Li': 4.0, 'O': 16.0, 'Cl': 4.0}",24,0,"['Li', 'Cl', 'O']",302.278739542672
19815,mp-542463,Mg(AlCl4)2,5.1644,"{'Mg': 2.0, 'Al': 4.0, 'Cl': 16.0}",22,0,"['Al', 'Cl', 'Mg']",670.853455101006
19829,mp-558078,Rb2NaFeF6,4.0723,"{'Rb': 2.0, 'Na': 1.0, 'Fe': 1.0, 'F': 6.0}",10,0,"['Rb', 'Na', 'Fe', 'F']",159.526181373518
19835,mp-560358,Zr2P2O9,4.1026,"{'Zr': 4.0, 'P': 4.0, 'O': 18.0}",26,0,"['O', 'P', 'Zr']",358.587386011188
19842,mp-561473,CaTaAlO5,3.8659,"{'Ca': 4.0, 'Ta': 4.0, 'Al': 4.0, 'O': 20.0}",32,0.001875260624997,"['Al', 'Ca', 'O', 'Ta']",412.750553421314
19851,mp-567652,Cs2LiYCl6,4.8987,"{'Cs': 2.0, 'Li': 1.0, 'Y': 1.0, 'Cl': 6.0}",10,0,"['Cs', 'Li', 'Y', 'Cl']",298.99183467221
19862,mp-5955,NaSbF6,4.8651,"{'F': 6.0, 'Na': 1.0, 'Sb': 1.0}",8,0,"['F', 'Na', 'Sb']",151.891046881099
19867,mp-6081,Ba2Ti(SiO4)2,3.722,"{'O': 16.0, 'Si': 4.0, 'Ti': 2.0, 'Ba': 4.0}",26,0,"['Ba', 'O', 'Si', 'Ti']",396.629900839138
20261,mp-38220,RbNO3,3.0132,"{'N': 2.0, 'O': 6.0, 'Rb': 2.0}",10,0.009929949444444,"['N', 'O', 'Rb']",188.978147215348
20266,mp-504554,Ba5Ta4O15,3.0901,"{'Ba': 5.0, 'Ta': 4.0, 'O': 15.0}",24,0,"['Ba', 'O', 'Ta']",356.594936271919
20293,mp-561584,Gd2GeO5,3.113,"{'Gd': 8.0, 'Ge': 4.0, 'O': 20.0}",32,0,"['Gd', 'Ge', 'O']",448.361085349429
20304,mp-571324,CNCl,3.7658,"{'C': 6.0, 'N': 6.0, 'Cl': 6.0}",18,0,"['C', 'Cl', 'N']",370.427356823012
20316,mp-614803,Cs2TeO3,3.5447,"{'Cs': 4.0, 'Te': 2.0, 'O': 6.0}",12,0,"['Cs', 'O', 'Te']",334.303250679086
20348,mp-7477,RbErO2,3.6679,"{'O': 2.0, 'Rb': 1.0, 'Er': 1.0}",4,0,"['Rb', 'Er', 'O']",68.4492798207374
20366,mp-755204,Li4MnFe3(BO3)4,3.1494,"{'Li': 4.0, 'Mn': 1.0, 'Fe': 3.0, 'B': 4.0, 'O': 12.0}",24,0.004045043819445,"['B', 'Fe', 'Li', 'Mn', 'O']",252.573709468258
20664,mp-1192413,CsInTe3O8,3.0793,"{'Cs': 2.0, 'In': 2.0, 'Te': 6.0, 'O': 16.0}",26,0,"['Cs', 'In', 'O', 'Te']",498.275100974875
20746,mp-1227988,BaBe2(PO4)2,5.1322,"{'Ba': 1.0, 'Be': 2.0, 'P': 2.0, 'O': 8.0}",13,0,"['Ba', 'Be', 'O', 'P']",169.554754731636
20819,mp-541031,BaCrF5,3.582,"{'Ba': 4.0, 'F': 20.0, 'Cr': 4.0}",28,0,"['Ba', 'Cr', 'F']",418.768114461773
20826,mp-555576,KNaS2O7,5.2189,"{'K': 2.0, 'Na': 2.0, 'S': 4.0, 'O': 14.0}",22,0,"['K', 'Na', 'S', 'O']",326.493355501639
20957,mp-8759,Cs2ZrO3,3.865,"{'O': 6.0, 'Zr': 2.0, 'Cs': 4.0}",12,0,"['Cs', 'O', 'Zr']",271.110514194184
21210,mp-1209367,RbEr(WO4)2,3.4396,"{'Rb': 2.0, 'Er': 2.0, 'W': 4.0, 'O': 16.0}",24,0,"['Er', 'O', 'Rb', 'W']",329.587531642599
21268,mp-12431,BaBeF4,7.5543,"{'Be': 4.0, 'F': 16.0, 'Ba': 4.0}",24,0,"['Ba', 'Be', 'F']",346.624114615395
21298,mp-18591,KZnPO4,3.9539,"{'O': 16.0, 'P': 4.0, 'K': 4.0, 'Zn': 4.0}",28,0.008433127857145,"['K', 'O', 'P', 'Zn']",431.353670888579
21325,mp-28341,LiGaCl4,4.4866,"{'Li': 4.0, 'Cl': 16.0, 'Ga': 4.0}",24,0,"['Cl', 'Ga', 'Li']",641.983117054798
21329,mp-30018,Rb2ZnI4,3.11,"{'Zn': 2.0, 'Rb': 4.0, 'I': 8.0}",14,0,"['I', 'Rb', 'Zn']",660.13772366848
21372,mp-559934,LiZnPO4,4.1304,"{'Li': 4.0, 'Zn': 4.0, 'P': 4.0, 'O': 16.0}",28,0.00116485339286,"['Li', 'O', 'P', 'Zn']",347.051483711169
21381,mp-571527,Cs2LiInCl6,3.2284,"{'Cs': 4.0, 'Li': 2.0, 'In': 2.0, 'Cl': 12.0}",20,0,"['Cl', 'Cs', 'In', 'Li']",594.876519569663
21536,mp-1078861,Mg(BrO3)2,4.1768,"{'Mg': 1.0, 'Br': 2.0, 'O': 6.0}",9,0,"['Br', 'Mg', 'O']",149.205565285461
21724,mp-1227701,BaSrCaWO6,3.4048,"{'Ba': 1.0, 'Sr': 1.0, 'Ca': 1.0, 'W': 1.0, 'O': 6.0}",10,0.003796348,"['Ba', 'Ca', 'O', 'Sr', 'W']",149.749865358981
21729,mp-1228110,Ba3TiZnWO9,3.0876,"{'Ba': 6.0, 'Ti': 2.0, 'Zn': 2.0, 'W': 2.0, 'O': 18.0}",30,0.004540893333334,"['Ba', 'O', 'Ti', 'W', 'Zn']",432.851346333165
21737,mp-1228953,Al2GaN3,3.1754,"{'Al': 4.0, 'Ga': 2.0, 'N': 6.0}",12,0.007103100833334,"['Al', 'Ga', 'N']",131.765129285101
21799,mp-20496,Ga2PbO4,3.4441,"{'O': 8.0, 'Ga': 4.0, 'Pb': 2.0}",14,0,"['Ga', 'O', 'Pb']",220.742327288348
21828,mp-4782,CaSnF6,5.4068,"{'F': 6.0, 'Ca': 1.0, 'Sn': 1.0}",8,0.00140952125,"['Ca', 'F', 'Sn']",147.21046955037
21837,mp-556145,NaAsO2,3.6341,"{'Na': 8.0, 'As': 8.0, 'O': 16.0}",32,0.001884840625,"['As', 'Na', 'O']",545.003611938019
21855,mp-6017,Na3In(PO4)2,3.2621,"{'Na': 3.0, 'In': 1.0, 'P': 2.0, 'O': 8.0}",14,0.000399935714287,"['In', 'Na', 'O', 'P']",172.770851910798
21977,mp-974482,K4Hf5O12,3.268,"{'K': 4.0, 'Hf': 5.0, 'O': 12.0}",21,0,"['Hf', 'K', 'O']",306.151948719212
22044,mp-1103152,CsBrF4,3.2414,"{'Cs': 2.0, 'Br': 2.0, 'F': 8.0}",12,0,"['Br', 'Cs', 'F']",255.006914799168
22119,mp-1205395,BaMg(CO3)2,4.2093,"{'Ba': 2.0, 'Mg': 2.0, 'C': 4.0, 'O': 12.0}",20,0.003617538500002,"['Ba', 'C', 'Mg', 'O']",251.833642212835
22167,mp-1223780,K5Br4Cl,4.4374,"{'K': 5.0, 'Br': 4.0, 'Cl': 1.0}",10,0.0036851,"['Br', 'Cl', 'K']",366.081832619872
22250,mp-27573,NaSb3F10,4.9742,"{'F': 20.0, 'Na': 2.0, 'Sb': 6.0}",28,0,"['F', 'Na', 'Sb']",476.175150822575
22273,mp-30320,RbHfF5,6.7979,"{'F': 20.0, 'Rb': 4.0, 'Hf': 4.0}",28,0,"['F', 'Hf', 'Rb']",433.803497991709
22283,mp-3524,LiPN2,3.8107,"{'Li': 2.0, 'N': 4.0, 'P': 2.0}",8,0,"['Li', 'P', 'N']",76.1721335140996
22284,mp-3788,SrAl4O7,3.7469,"{'O': 14.0, 'Al': 8.0, 'Sr': 2.0}",24,0,"['Al', 'O', 'Sr']",323.485319842028
22289,mp-41473,CsTiNiOF5,3.1087,"{'Cs': 2.0, 'Ti': 2.0, 'Ni': 2.0, 'O': 2.0, 'F': 10.0}",18,0,"['Cs', 'F', 'Ni', 'O', 'Ti']",282.628050269623
22319,mp-552663,LiScAs2O7,3.4538,"{'As': 2.0, 'Li': 1.0, 'Sc': 1.0, 'O': 7.0}",11,0,"['Li', 'Sc', 'As', 'O']",143.024478462094
22326,mp-556615,CaBi6(PO5)4,3.5328,"{'Ca': 1.0, 'Bi': 6.0, 'P': 4.0, 'O': 20.0}",31,0,"['Bi', 'Ca', 'O', 'P']",432.531836282147
22328,mp-556902,KLi4NbO5,3.7612,"{'K': 2.0, 'Li': 8.0, 'Nb': 2.0, 'O': 10.0}",22,0,"['K', 'Li', 'Nb', 'O']",250.498703086545
22335,mp-559127,K2Zn2Si8O19,4.2185,"{'K': 2.0, 'Zn': 2.0, 'Si': 8.0, 'O': 19.0}",31,0.006290851989248,"['K', 'O', 'Si', 'Zn']",433.883751579192
22336,mp-559348,BaZr(BO3)2,4.1141,"{'Ba': 2.0, 'Zr': 2.0, 'B': 4.0, 'O': 12.0}",20,0,"['B', 'Ba', 'O', 'Zr']",273.21453237586
22373,mp-623024,TiCdF6,4.3841,"{'Ti': 1.0, 'Cd': 1.0, 'F': 6.0}",8,0,"['Ti', 'Cd', 'F']",120.235762203249
22378,mp-6318,KLiSO4,5.3179,"{'Li': 2.0, 'O': 8.0, 'S': 2.0, 'K': 2.0}",14,8.60114285696767E-05,"['K', 'Li', 'O', 'S']",207.53181870717
22403,mp-676,CaN6,3.5449,"{'N': 12.0, 'Ca': 2.0}",14,0,"['Ca', 'N']",192.276646030526
22443,mp-760007,Hf3N2O3,3.2918,"{'Hf': 6.0, 'N': 4.0, 'O': 6.0}",16,0.003827644999999,"['Hf', 'N', 'O']",225.166429135276
22473,mp-8145,RbScO2,3.3017,"{'O': 2.0, 'Sc': 1.0, 'Rb': 1.0}",4,0.0025364575,"['Rb', 'Sc', 'O']",60.3210976005607
22619,mp-1192209,As3Pb2BrO6,3.2448,"{'As': 6.0, 'Pb': 4.0, 'Br': 2.0, 'O': 12.0}",24,0,"['As', 'Br', 'O', 'Pb']",472.351380914603
22735,mp-18743,CaMnP2O7,4.2174,"{'Ca': 2.0, 'Mn': 2.0, 'P': 4.0, 'O': 14.0}",22,0,"['Ca', 'Mn', 'O', 'P']",273.689191998344
22756,mp-23612,K3B6BrO10,5.2117,"{'B': 6.0, 'O': 10.0, 'K': 3.0, 'Br': 1.0}",20,0,"['B', 'Br', 'K', 'O']",272.926610907169
22804,mp-559150,Na9ZrP4ClO16,3.9694,"{'Na': 9.0, 'Zr': 1.0, 'P': 4.0, 'Cl': 1.0, 'O': 16.0}",31,0,"['Cl', 'Na', 'O', 'P', 'Zr']",432.4797393366
22805,mp-559313,SiO2,5.3664,"{'Si': 8.0, 'O': 16.0}",24,0.009039631666665,"['O', 'Si']",426.173691559793
22866,mp-755246,Ni(IO3)2,3.0378,"{'Ni': 2.0, 'I': 4.0, 'O': 12.0}",18,0,"['I', 'Ni', 'O']",270.332340708076
22870,mp-755625,LiVNiO4,3.004,"{'Li': 2.0, 'V': 2.0, 'Ni': 2.0, 'O': 8.0}",14,0.008992754761905,"['Li', 'Ni', 'O', 'V']",153.172893657782
22970,mp-8560,SF6,5.7755,"{'F': 6.0, 'S': 1.0}",7,0,"['S', 'F']",107.444949307801
23122,mp-1182342,BaNaY(BO3)2,3.3011,"{'Ba': 2.0, 'Na': 2.0, 'Y': 2.0, 'B': 4.0, 'O': 12.0}",22,0.006922750959596,"['B', 'Ba', 'Na', 'O', 'Y']",307.993218859575
23149,mp-1192391,RbLi2CdC2O6F,3.3238,"{'Rb': 2.0, 'Li': 4.0, 'Cd': 2.0, 'C': 4.0, 'O': 12.0, 'F': 2.0}",26,0,"['C', 'Cd', 'F', 'Li', 'O', 'Rb']",336.698072581378
23265,mp-18806,Ni3(BO3)2,3.0462,"{'B': 4.0, 'O': 12.0, 'Ni': 6.0}",22,0,"['B', 'Ni', 'O']",205.750456513764
23320,mp-554472,PNClF,5.0611,"{'P': 6.0, 'N': 6.0, 'Cl': 6.0, 'F': 6.0}",24,0.009664030583334,"['Cl', 'F', 'N', 'P']",512.447160077645
23342,mp-569175,ZrCl4,3.6106,"{'Zr': 2.0, 'Cl': 8.0}",10,0,"['Cl', 'Zr']",314.968929579306
23416,mp-770805,Li6Hf2O7,4.2889,"{'Li': 12.0, 'Hf': 4.0, 'O': 14.0}",30,0.001721445666668,"['Hf', 'Li', 'O']",314.273850782938
23586,mp-1111928,K2LiAsF6,4.5591,"{'K': 2.0, 'Li': 1.0, 'As': 1.0, 'F': 6.0}",10,0,"['As', 'F', 'K', 'Li']",145.274038921617
23659,mp-1188344,CsLiCl2,5.115,"{'Cs': 4.0, 'Li': 4.0, 'Cl': 8.0}",16,0,"['Cl', 'Cs', 'Li']",500.226005164373
23716,mp-1209324,RbBePO4,5.2784,"{'Rb': 4.0, 'Be': 4.0, 'P': 4.0, 'O': 16.0}",28,0,"['Be', 'O', 'P', 'Rb']",382.68594878087
23818,mp-29228,CsSrN9,3.8241,"{'N': 18.0, 'Sr': 2.0, 'Cs': 2.0}",22,0.008514411363639,"['Cs', 'N', 'Sr']",384.196644058475
23847,mp-554765,BaSb2F12,4.046,"{'Ba': 1.0, 'Sb': 2.0, 'F': 12.0}",15,0,"['Ba', 'F', 'Sb']",267.210569546123
23851,mp-556275,Rb2Al2Sb2O7,3.6203,"{'Rb': 2.0, 'Al': 2.0, 'Sb': 2.0, 'O': 7.0}",13,0,"['Al', 'O', 'Rb', 'Sb']",245.643771983985
23853,mp-556911,FeF2,3.2415,"{'Fe': 2.0, 'F': 4.0}",6,0,"['Fe', 'F']",76.9424593013656
23855,mp-558362,CaMgGeO4,3.6236,"{'Ca': 4.0, 'Mg': 4.0, 'Ge': 4.0, 'O': 16.0}",28,0,"['Ca', 'Ge', 'Mg', 'O']",371.042095548214
23886,mp-675625,KNO3,3.0468,"{'K': 2.0, 'N': 2.0, 'O': 6.0}",10,0.008065380499998,"['K', 'N', 'O']",179.0882273398
24291,mp-15079,Cs4KLiGa2F12,6.0599,"{'Li': 1.0, 'F': 12.0, 'K': 1.0, 'Ga': 2.0, 'Cs': 4.0}",20,0,"['Cs', 'F', 'Ga', 'K', 'Li']",373.371799151718
24310,mp-22983,LiAlCl4,5.557,"{'Li': 4.0, 'Al': 4.0, 'Cl': 16.0}",24,0,"['Al', 'Cl', 'Li']",638.119647139005
24329,mp-3054,Li2CO3,5.0446,"{'Li': 4.0, 'C': 2.0, 'O': 6.0}",12,0,"['Li', 'C', 'O']",122.898287202259
24333,mp-37873,Li3ErBr6,4.3592,"{'Br': 12.0, 'Er': 2.0, 'Li': 6.0}",20,0.003002137,"['Br', 'Er', 'Li']",539.055440810635
24343,mp-5348,MgCO3,4.9659,"{'C': 2.0, 'O': 6.0, 'Mg': 2.0}",10,0,"['Mg', 'C', 'O']",96.5904349301802
24400,mp-682,NaF,6.0943,"{'F': 1.0, 'Na': 1.0}",2,0,"['Na', 'F']",25.8936106187628
24487,mp-9816,GeF4,5.5005,"{'F': 4.0, 'Ge': 1.0}",5,0,"['F', 'Ge']",90.6071880785027
24642,mp-1211497,KSc(WO4)2,3.1169,"{'K': 2.0, 'Sc': 2.0, 'W': 4.0, 'O': 16.0}",24,0,"['K', 'O', 'Sc', 'W']",313.846928727979
24725,mp-18704,CsLiBeF4,6.8735,"{'Cs': 4.0, 'Li': 4.0, 'Be': 4.0, 'F': 16.0}",28,0,"['Be', 'Cs', 'F', 'Li']",460.440374844302