,task_id,pretty_formula,band_gap,unit_cell_formula,nsites,e_above_hull,elements,volume
60891,mp-756362,LiCrO2,3.0611,"{'Li': 4.0, 'Cr': 4.0, 'O': 8.0}",16,0.001411180000001,"['Cr', 'Li', 'O']",146.790321299481
60968,mp-9749,Sr(BO2)2,4.9456,"{'B': 8.0, 'O': 16.0, 'Sr': 4.0}",28,0,"['B', 'O', 'Sr']",357.885075775164
61046,mp-1101981,SrGe(PO4)2,4.1077,"{'Sr': 1.0, 'Ge': 1.0, 'P': 2.0, 'O': 8.0}",12,0.002347832083331,"['Ge', 'O', 'P', 'Sr']",153.324124957047
61060,mp-1111112,K2LiGaF6,6.1271,"{'K': 2.0, 'Li': 1.0, 'Ga': 1.0, 'F': 6.0}",10,0,"['F', 'Ga', 'K', 'Li']",133.275055699935
61207,mp-1213894,CaYBO4,4.3043,"{'Ca': 4.0, 'Y': 4.0, 'B': 4.0, 'O': 16.0}",28,0,"['B', 'Ca', 'O', 'Y']",369.840613161031
61232,mp-1221446,N2O,6.213,"{'N': 8.0, 'O': 4.0}",12,0,"['N', 'O']",216.630124310602
61243,mp-1228089,Ba3SrZn2(WO6)2,3.3606,"{'Ba': 3.0, 'Sr': 1.0, 'Zn': 2.0, 'W': 2.0, 'O': 12.0}",20,0.008367867781251,"['Ba', 'O', 'Sr', 'W', 'Zn']",277.335426452615
61315,mp-31508,KPb2Br5,3.0674,"{'K': 4.0, 'Br': 20.0, 'Pb': 8.0}",32,0,"['Br', 'K', 'Pb']",1080.6719010943
61322,mp-4609,HfSiO4,5.3034,"{'O': 8.0, 'Si': 2.0, 'Hf': 2.0}",12,0,"['Hf', 'O', 'Si']",131.815507422737
61527,mp-1078295,NaNbO3,3.8468,"{'Na': 2.0, 'Nb': 2.0, 'O': 6.0}",10,0,"['Na', 'Nb', 'O']",134.478683319228
61726,mp-1221141,Na5Br4Cl,4.2025,"{'Na': 5.0, 'Br': 4.0, 'Cl': 1.0}",10,0.006359777,"['Br', 'Cl', 'Na']",265.932231106331
61750,mp-1226202,Cs2CaP2O7,4.9246,"{'Cs': 2.0, 'Ca': 1.0, 'P': 2.0, 'O': 7.0}",12,0,"['Ca', 'Cs', 'O', 'P']",207.765787964445
61790,mp-17709,Na2ZnSiO4,3.1371,"{'O': 16.0, 'Na': 8.0, 'Si': 4.0, 'Zn': 4.0}",32,0.004159478125,"['Na', 'O', 'Si', 'Zn']",420.099071680361
61791,mp-18487,KVTeO5,3.3465,"{'O': 20.0, 'K': 4.0, 'V': 4.0, 'Te': 4.0}",32,0,"['K', 'O', 'Te', 'V']",523.357272807314
61851,mp-555560,CdTeMoO6,3.1895,"{'Cd': 2.0, 'Te': 2.0, 'Mo': 2.0, 'O': 12.0}",18,0,"['Cd', 'Mo', 'O', 'Te']",268.651914846566
61854,mp-556123,Sr2Sc2B4O11,4.344,"{'Sr': 2.0, 'Sc': 2.0, 'B': 4.0, 'O': 11.0}",19,0.00632303763158,"['B', 'O', 'Sc', 'Sr']",227.603815211421
61856,mp-557467,Li4Ca(BO3)2,4.7265,"{'Li': 8.0, 'Ca': 2.0, 'B': 4.0, 'O': 12.0}",26,0,"['B', 'Ca', 'Li', 'O']",267.624770109252
61862,mp-560570,Rb2NaAl6F21,7.0042,"{'Rb': 2.0, 'Na': 1.0, 'Al': 6.0, 'F': 21.0}",30,0,"['Al', 'F', 'Na', 'Rb']",412.893365426952
61997,mvc-14163,CaMoF5,3.7402,"{'Ca': 2.0, 'Mo': 2.0, 'F': 10.0}",14,0.008766972142857,"['Ca', 'F', 'Mo']",235.008019336562
62003,mp-1012551,BaBrCl,4.4843,"{'Ba': 4.0, 'Br': 4.0, 'Cl': 4.0}",12,0,"['Ba', 'Br', 'Cl']",392.461776918336
62155,mp-1219581,RbMgAlF6,6.4977,"{'Rb': 2.0, 'Mg': 2.0, 'Al': 2.0, 'F': 12.0}",18,0,"['Al', 'F', 'Mg', 'Rb']",259.50299375881
62234,mp-14069,CsAlO2,4.2735,"{'O': 4.0, 'Al': 2.0, 'Cs': 2.0}",8,0,"['Cs', 'Al', 'O']",138.186155017099
62241,mp-16795,CaAlF5,7.1355,"{'F': 20.0, 'Al': 4.0, 'Ca': 4.0}",28,0.003244174642858,"['Al', 'Ca', 'F']",377.133588149741
62278,mp-23267,BeCl2,6.3332,"{'Be': 2.0, 'Cl': 4.0}",6,0,"['Be', 'Cl']",160.04939993578
62329,mp-3589,BPO4,7.2565,"{'B': 1.0, 'O': 4.0, 'P': 1.0}",6,0,"['B', 'P', 'O']",66.1969942503497
62332,mp-4875,GdTaO4,3.2909,"{'O': 8.0, 'Gd': 2.0, 'Ta': 2.0}",12,0,"['Gd', 'Ta', 'O']",155.72578251009
62349,mp-548615,Ba2ZnWO6,3.406,"{'Ba': 2.0, 'Zn': 1.0, 'W': 1.0, 'O': 6.0}",10,0,"['Ba', 'O', 'W', 'Zn']",140.915765132576
62365,mp-558045,NaLi2PO4,5.1689,"{'Na': 4.0, 'Li': 8.0, 'P': 4.0, 'O': 16.0}",32,0,"['Li', 'Na', 'O', 'P']",351.029326356006
62419,mp-754510,K3NiPCO7,3.764,"{'K': 6.0, 'Ni': 2.0, 'P': 2.0, 'C': 2.0, 'O': 14.0}",26,0,"['C', 'K', 'Ni', 'O', 'P']",372.065111748556
62546,mp-1112570,Cs2NaGaF6,5.8414,"{'Cs': 2.0, 'Na': 1.0, 'Ga': 1.0, 'F': 6.0}",10,0.009219124,"['Cs', 'F', 'Ga', 'Na']",172.447418377789
62756,mp-554605,Rb2SbCl3F2,3.0336,"{'Rb': 6.0, 'Sb': 3.0, 'Cl': 9.0, 'F': 6.0}",24,0,"['Cl', 'F', 'Rb', 'Sb']",669.70515428944
62758,mp-555272,Na5Zr2F13,6.0893,"{'Na': 5.0, 'Zr': 2.0, 'F': 13.0}",20,0,"['F', 'Na', 'Zr']",279.735604661696
62762,mp-556878,BiPPbO5,3.3391,"{'Bi': 2.0, 'P': 2.0, 'Pb': 2.0, 'O': 10.0}",16,0,"['Bi', 'O', 'P', 'Pb']",254.578987923246
62794,mp-570168,Rb2ZnBr4,3.6395,"{'Rb': 8.0, 'Zn': 4.0, 'Br': 16.0}",28,0.005464117023809,"['Br', 'Rb', 'Zn']",1063.26804482904
62865,mp-753190,Li2P2WO8,3.0515,"{'Li': 4.0, 'P': 4.0, 'W': 2.0, 'O': 16.0}",26,0.006784726538449,"['Li', 'O', 'P', 'W']",321.646426057138
62874,mp-754162,LiGdO2,3.0626,"{'Li': 4.0, 'Gd': 4.0, 'O': 8.0}",16,0.00878720625,"['Gd', 'Li', 'O']",222.105422495583
62886,mp-755213,YbCO3,4.1309,"{'Yb': 4.0, 'C': 4.0, 'O': 12.0}",20,0,"['C', 'O', 'Yb']",220.114044418467
62963,mp-8076,Na3SbO3,3.0901,"{'O': 12.0, 'Na': 12.0, 'Sb': 4.0}",28,0,"['Na', 'O', 'Sb']",446.273072199878
63111,mp-1186921,Rb2Ga2Ge3O10,3.2649,"{'Rb': 4.0, 'Ga': 4.0, 'Ge': 6.0, 'O': 20.0}",34,0,"['Ga', 'Ge', 'O', 'Rb']",563.564460513283
63152,mp-1209088,RbYBeF6,7.425,"{'Rb': 2.0, 'Y': 2.0, 'Be': 2.0, 'F': 12.0}",18,0,"['Be', 'F', 'Rb', 'Y']",258.084166733109
63158,mp-1211628,KEr(CO3)2,4.3824,"{'K': 2.0, 'Er': 2.0, 'C': 4.0, 'O': 12.0}",20,0,"['C', 'Er', 'K', 'O']",262.005275432874
63163,mp-1213688,CsCaI3,3.987,"{'Cs': 4.0, 'Ca': 4.0, 'I': 12.0}",20,0.009215988,"['Ca', 'Cs', 'I']",948.408517186254
63207,mp-1225928,CsMgFeF6,3.4628,"{'Cs': 2.0, 'Mg': 2.0, 'Fe': 2.0, 'F': 12.0}",18,0,"['Cs', 'F', 'Fe', 'Mg']",291.088120538296
63236,mp-12803,BaEr2F8,7.2193,"{'F': 8.0, 'Ba': 1.0, 'Er': 2.0}",11,0,"['Ba', 'Er', 'F']",156.526333568466
63242,mp-15939,SrAl2B2O7,4.6512,"{'B': 2.0, 'O': 7.0, 'Al': 2.0, 'Sr': 1.0}",12,0.000964463333336,"['Al', 'B', 'O', 'Sr']",171.93563465745
63243,mp-17539,KAsOF4,3.715,"{'O': 4.0, 'F': 16.0, 'K': 4.0, 'As': 4.0}",28,0,"['As', 'F', 'K', 'O']",439.416834581716
63273,mp-28778,KScF4,6.0963,"{'F': 16.0, 'K': 4.0, 'Sc': 4.0}",24,0,"['F', 'K', 'Sc']",422.285363971219
63280,mp-3667,P2S2O3,3.9783,"{'O': 12.0, 'P': 8.0, 'S': 8.0}",28,0,"['O', 'P', 'S']",672.931629752779
63307,mp-559695,Cs2RbBiF6,4.7856,"{'Cs': 2.0, 'Rb': 1.0, 'Bi': 1.0, 'F': 6.0}",10,0,"['Bi', 'Cs', 'F', 'Rb']",247.045528760824
63373,mp-757021,KGdO2,3.0504,"{'K': 1.0, 'Gd': 1.0, 'O': 2.0}",4,0,"['Gd', 'K', 'O']",68.2689313179533
63437,mp-8313,Cs2Li2GeO4,3.4747,"{'Li': 4.0, 'O': 8.0, 'Ge': 2.0, 'Cs': 4.0}",18,0,"['Cs', 'Ge', 'Li', 'O']",316.733073942577
63445,mp-861962,BaSb2F12,4.4413,"{'Ba': 1.0, 'Sb': 2.0, 'F': 12.0}",15,0.003992453333328,"['Ba', 'F', 'Sb']",244.991027014484
63509,mp-1025286,Rb2ZnF4,4.7125,"{'Rb': 2.0, 'Zn': 1.0, 'F': 4.0}",7,0,"['Rb', 'Zn', 'F']",123.403798738629
63669,mp-1190209,RbHf2Br9,3.1717,"{'Rb': 2.0, 'Hf': 4.0, 'Br': 18.0}",24,0,"['Br', 'Hf', 'Rb']",887.645376959913
63711,mp-1205559,YbInBr3,3.1607,"{'Yb': 2.0, 'In': 2.0, 'Br': 6.0}",10,0,"['Br', 'In', 'Yb']",332.504554020993
63786,mp-13898,Cs2NaInF6,5.3058,"{'F': 6.0, 'Na': 1.0, 'In': 1.0, 'Cs': 2.0}",10,0,"['Cs', 'F', 'In', 'Na']",186.271915559554
63788,mp-14232,LiBO2,7.2811,"{'Li': 2.0, 'B': 2.0, 'O': 4.0}",8,0.007009156875,"['B', 'Li', 'O']",59.0698708236018
63846,mp-505799,P2Pb3O8,3.4156,"{'Pb': 6.0, 'P': 4.0, 'O': 16.0}",26,0,"['O', 'P', 'Pb']",412.137654364051
63854,mp-5575,GdTaO4,3.257,"{'O': 8.0, 'Gd': 2.0, 'Ta': 2.0}",12,0.005731785,"['Gd', 'O', 'Ta']",155.677039810593
63940,mp-7650,RbScO2,3.4541,"{'O': 4.0, 'Sc': 2.0, 'Rb': 2.0}",8,0,"['Rb', 'Sc', 'O']",120.377598380276
63945,mp-768120,Na2GaPCO7,3.7817,"{'Na': 4.0, 'Ga': 2.0, 'P': 2.0, 'C': 2.0, 'O': 14.0}",24,0,"['C', 'Ga', 'Na', 'O', 'P']",302.727213443643
64054,mp-1112606,Cs3BiF6,4.5375,"{'Cs': 3.0, 'Bi': 1.0, 'F': 6.0}",10,0,"['Bi', 'Cs', 'F']",266.329095239128
64076,mp-1178391,CsLiWO4,4.4276,"{'Cs': 1.0, 'Li': 1.0, 'W': 1.0, 'O': 4.0}",7,0,"['Cs', 'Li', 'O', 'W']",158.548844806316
64105,mp-1190488,Al4CdO7,3.0638,"{'Al': 8.0, 'Cd': 2.0, 'O': 14.0}",24,0,"['Al', 'Cd', 'O']",302.074711600166
64251,mp-1223636,KAlSi3O8,4.9108,"{'K': 2.0, 'Al': 2.0, 'Si': 6.0, 'O': 16.0}",26,0.003819405769229,"['Al', 'K', 'O', 'Si']",377.147203128604
64285,mp-13903,ZnSnF6,3.7147,"{'F': 6.0, 'Zn': 1.0, 'Sn': 1.0}",8,0,"['Zn', 'Sn', 'F']",115.632611023408
64304,mp-2173,P2O5,4.8374,"{'O': 20.0, 'P': 8.0}",28,0.005117837857142,"['P', 'O']",352.181300112187
64329,mp-4590,Mg(GaO2)2,3.112,"{'O': 8.0, 'Mg': 2.0, 'Ga': 4.0}",14,0.006272717142855,"['Mg', 'Ga', 'O']",151.199990135562
64347,mp-558836,MoF6,4.2539,"{'F': 6.0, 'Mo': 1.0}",7,0.004238438928571,"['F', 'Mo']",143.122482264059
64376,mp-6358,NaTiPO5,3.0371,"{'O': 20.0, 'Na': 4.0, 'P': 4.0, 'Ti': 4.0}",32,0.000903633262498,"['Na', 'O', 'P', 'Ti']",376.043976803388
64402,mp-7104,CsCaF3,6.8954,"{'F': 3.0, 'Ca': 1.0, 'Cs': 1.0}",5,0,"['Cs', 'Ca', 'F']",96.2901008451092
64414,mp-755632,LiFeF4,3.6188,"{'Li': 4.0, 'Fe': 4.0, 'F': 16.0}",24,0.002092994166675,"['F', 'Fe', 'Li']",280.943426379269
64452,mp-779471,Li2MnFe(BO3)2,3.0889,"{'Li': 4.0, 'Mn': 2.0, 'Fe': 2.0, 'B': 4.0, 'O': 12.0}",24,0.004569605555552,"['B', 'Fe', 'Li', 'Mn', 'O']",253.088080801506
64510,mp-1019794,K3LiP2O7,4.877,"{'K': 6.0, 'Li': 2.0, 'P': 4.0, 'O': 14.0}",26,0,"['K', 'Li', 'O', 'P']",394.32276017361
64551,mp-1112137,Cs2NaYI6,3.1517,"{'Cs': 2.0, 'Na': 1.0, 'Y': 1.0, 'I': 6.0}",10,0,"['Cs', 'I', 'Na', 'Y']",476.265855028978
64642,mp-1209465,Rb2Mo(OF2)2,3.4684,"{'Rb': 4.0, 'Mo': 2.0, 'O': 4.0, 'F': 8.0}",18,0,"['F', 'Mo', 'O', 'Rb']",325.906328142405
64751,mp-18509,KBe3ZnF9,6.2458,"{'Be': 6.0, 'F': 18.0, 'K': 2.0, 'Zn': 2.0}",28,0,"['Be', 'F', 'K', 'Zn']",377.544307470463
64758,mp-19400,Sr2NiWO6,3.368,"{'O': 6.0, 'Ni': 1.0, 'Sr': 2.0, 'W': 1.0}",10,0,"['Sr', 'Ni', 'W', 'O']",128.330840546577
64775,mp-22457,K3Na(SO4)2,5.2936,"{'O': 8.0, 'Na': 1.0, 'S': 2.0, 'K': 3.0}",14,0.000330314017857,"['K', 'Na', 'O', 'S']",213.373055334232
64777,mp-22554,MnSO4,3.6194,"{'O': 8.0, 'S': 2.0, 'Mn': 2.0}",12,0,"['Mn', 'O', 'S']",151.603112632476
64779,mp-23526,KClO4,5.5415,"{'O': 16.0, 'Cl': 4.0, 'K': 4.0}",24,0,"['K', 'Cl', 'O']",387.526630981043
64808,mp-29355,NaTeF5,5.2511,"{'Te': 4.0, 'F': 20.0, 'Na': 4.0}",28,0,"['F', 'Na', 'Te']",464.369610016878
64820,mp-3448,KMgF3,6.9537,"{'F': 3.0, 'Mg': 1.0, 'K': 1.0}",5,0,"['K', 'Mg', 'F']",66.5998285078962
64827,mp-39215,Zn3GaB6PO12,4.0713,"{'B': 6.0, 'Ga': 1.0, 'O': 12.0, 'P': 1.0, 'Zn': 3.0}",23,0,"['B', 'Ga', 'O', 'P', 'Zn']",228.625451253882
64831,mp-4124,CaCN2,3.5804,"{'C': 1.0, 'N': 2.0, 'Ca': 1.0}",4,0,"['Ca', 'C', 'N']",59.4602244580773
64847,mp-554412,RbTa(PO4)2,3.354,"{'Rb': 1.0, 'Ta': 1.0, 'P': 2.0, 'O': 8.0}",12,0,"['O', 'P', 'Rb', 'Ta']",198.146671021362
64857,mp-560297,LiTaSiO5,3.8065,"{'Li': 4.0, 'Ta': 4.0, 'Si': 4.0, 'O': 20.0}",32,0,"['Li', 'O', 'Si', 'Ta']",395.072006233843
65085,mp-1189451,BeCN2,5.5029,"{'Be': 4.0, 'C': 4.0, 'N': 8.0}",16,0,"['Be', 'C', 'N']",99.4547247340654
65094,mp-1192552,KAsO3,3.1255,"{'K': 6.0, 'As': 6.0, 'O': 18.0}",30,0,"['As', 'K', 'O']",556.216469055843
65100,mp-11980,CsNbF6,5.203,"{'F': 6.0, 'Nb': 1.0, 'Cs': 1.0}",8,0,"['Cs', 'F', 'Nb']",159.364311140688
65216,mp-23349,Bi(BO2)3,3.8384,"{'O': 6.0, 'B': 3.0, 'Bi': 1.0}",10,0.0042628525,"['B', 'Bi', 'O']",118.147657971782
65222,mp-27007,LiFe2P3O10,3.155,"{'Li': 2.0, 'Fe': 4.0, 'P': 6.0, 'O': 20.0}",32,0,"['Fe', 'Li', 'O', 'P']",370.011683261484
65239,mp-510456,Zr(MoO4)2,3.116,"{'O': 8.0, 'Zr': 1.0, 'Mo': 2.0}",11,0,"['Zr', 'Mo', 'O']",202.450686372244
65250,mp-545548,BaHf(PO4)2,4.9268,"{'O': 8.0, 'P': 2.0, 'Hf': 1.0, 'Ba': 1.0}",12,0,"['Ba', 'Hf', 'O', 'P']",184.392656783694
65255,mp-5547,Mg2B2O5,5.0786,"{'B': 4.0, 'O': 10.0, 'Mg': 4.0}",18,0.00030095777778,"['B', 'Mg', 'O']",176.97394023182
65257,mp-554941,KRb2BiF6,4.7982,"{'Rb': 2.0, 'K': 1.0, 'Bi': 1.0, 'F': 6.0}",10,0.005487717000003,"['Bi', 'F', 'K', 'Rb']",223.220502275576
65270,mp-557323,Na2V2ZnO7,3.2773,"{'Na': 4.0, 'V': 4.0, 'Zn': 2.0, 'O': 14.0}",24,0.009859715833334,"['Na', 'O', 'V', 'Zn']",366.775368195114
65275,mp-557938,HfVF6,3.2222,"{'F': 6.0, 'V': 1.0, 'Hf': 1.0}",8,0,"['Hf', 'V', 'F']",139.823704426417
65279,mp-558309,K4SnSb2F14,4.0855,"{'K': 4.0, 'Sn': 1.0, 'Sb': 2.0, 'F': 14.0}",21,0,"['F', 'K', 'Sb', 'Sn']",365.683106869411
65287,mp-560381,RbIn3F10,3.4383,"{'Rb': 2.0, 'In': 6.0, 'F': 20.0}",28,0.003465287053571,"['F', 'In', 'Rb']",462.657392399131
65312,mp-5724,AlPO4,5.4824,"{'O': 8.0, 'Al': 2.0, 'P': 2.0}",12,0.002688714166667,"['Al', 'P', 'O']",194.356796884197
65410,mp-755421,Ca6HfO8,4.148,"{'Ca': 6.0, 'Hf': 1.0, 'O': 8.0}",15,0.002309869500001,"['Ca', 'Hf', 'O']",221.434875975554
65703,mp-1251981,MnAlF5,4.634,"{'Mn': 1.0, 'Al': 1.0, 'F': 5.0}",7,0.006275111428572,"['Al', 'F', 'Mn']",89.1467261548474
65762,mp-5377,YTaO4,4.0097,"{'O': 8.0, 'Y': 2.0, 'Ta': 2.0}",12,0,"['Y', 'Ta', 'O']",152.095023163913
65770,mp-555321,BaNiF4,4.6575,"{'F': 8.0, 'Ni': 2.0, 'Ba': 2.0}",12,0.000922723333342,"['Ba', 'Ni', 'F']",183.497549647402
65781,mp-558539,Cs2Ba2(CO3)3,4.3381,"{'Cs': 4.0, 'Ba': 4.0, 'C': 6.0, 'O': 18.0}",32,0,"['Ba', 'C', 'Cs', 'O']",581.586244023938
65884,mp-768749,Li4AlCr3O8,3.1685,"{'Li': 8.0, 'Al': 2.0, 'Cr': 6.0, 'O': 16.0}",32,0.008110377031251,"['Al', 'Cr', 'Li', 'O']",287.493421910821
65930,mp-779072,Li4MnFe3(BO3)4,3.1551,"{'Li': 4.0, 'Mn': 1.0, 'Fe': 3.0, 'B': 4.0, 'O': 12.0}",24,0.003950067152778,"['B', 'Fe', 'Li', 'Mn', 'O']",252.137522228028
65956,mp-866310,Ba2YB2ClO6,4.0585,"{'Ba': 4.0, 'Y': 2.0, 'B': 4.0, 'Cl': 2.0, 'O': 12.0}",24,0,"['B', 'Ba', 'Cl', 'O', 'Y']",398.451785559766
65967,mp-8891,K2Zr(BO3)2,3.3991,"{'B': 2.0, 'O': 6.0, 'K': 2.0, 'Zr': 1.0}",11,0,"['K', 'Zr', 'B', 'O']",148.560712826823
65976,mp-975,SF6,5.8786,"{'F': 18.0, 'S': 3.0}",21,0.001569939047619,"['F', 'S']",304.065217628262
65986,mp-989545,Rb2NaSbCl6,3.0737,"{'Rb': 2.0, 'Na': 1.0, 'Sb': 1.0, 'Cl': 6.0}",10,0,"['Rb', 'Na', 'Sb', 'Cl']",317.440696225015
65998,mvc-3453,SbF5,3.7362,"{'Sb': 4.0, 'F': 20.0}",24,0,"['Sb', 'F']",412.082625337426
66009,mp-1020019,Li2PNO2,5.6021,"{'Li': 4.0, 'P': 2.0, 'N': 2.0, 'O': 4.0}",12,0,"['Li', 'P', 'N', 'O']",118.6051828744
66010,mp-1020164,Na3LiP2O7,4.8522,"{'Na': 6.0, 'Li': 2.0, 'P': 4.0, 'O': 14.0}",26,0,"['Li', 'Na', 'O', 'P']",320.360078941558
66011,mp-1020712,ZnSiN2,3.2029,"{'Zn': 4.0, 'Si': 4.0, 'N': 8.0}",16,0,"['N', 'Si', 'Zn']",169.304153343865
66157,mp-1185301,LiF,7.4778,"{'Li': 2.0, 'F': 2.0}",4,0.00756484,"['F', 'Li']",42.2235996299575
66180,mp-1192829,Cs3Y2Cl9,4.8626,"{'Cs': 6.0, 'Y': 4.0, 'Cl': 18.0}",28,0,"['Cl', 'Cs', 'Y']",978.381895241185
66327,mp-422,BeS,3.1435,"{'Be': 1.0, 'S': 1.0}",2,0,"['Be', 'S']",28.9558046569808
66331,mp-542232,CaFeF5,3.6388,"{'Ca': 4.0, 'Fe': 4.0, 'F': 20.0}",28,0.000774933214286,"['Ca', 'F', 'Fe']",415.706980809385
66344,mp-559091,SiO2,5.4411,"{'Si': 4.0, 'O': 8.0}",12,0.004168487499999,"['O', 'Si']",195.322939250179
66345,mp-560620,BaZr(PO4)2,3.8216,"{'Ba': 1.0, 'Zr': 1.0, 'P': 2.0, 'O': 8.0}",12,0.006134337499995,"['Ba', 'Zr', 'P', 'O']",190.063076568372
66361,mp-608516,CsGaCl4,4.491,"{'Cs': 4.0, 'Ga': 4.0, 'Cl': 16.0}",24,0,"['Cl', 'Cs', 'Ga']",849.115327915705
66364,mp-6319,Na2MgAlF7,6.6578,"{'F': 14.0, 'Na': 4.0, 'Mg': 2.0, 'Al': 2.0}",22,0,"['Al', 'F', 'Mg', 'Na']",269.050575158807
66376,mp-6764,BaSi2(NO)2,3.0105,"{'N': 8.0, 'O': 8.0, 'Si': 8.0, 'Ba': 4.0}",28,0,"['Ba', 'Si', 'N', 'O']",383.976491952208
66383,mp-6899,CaBePO4F,6.1046,"{'Be': 4.0, 'O': 16.0, 'F': 4.0, 'P': 4.0, 'Ca': 4.0}",32,0.006366962656253,"['Be', 'Ca', 'F', 'O', 'P']",366.660767465508
66462,mp-7913,BeSiN2,5.1459,"{'Be': 4.0, 'N': 8.0, 'Si': 4.0}",16,0,"['Be', 'Si', 'N']",135.649424726803
66519,mp-1078799,LiNbF6,5.1069,"{'Li': 1.0, 'Nb': 1.0, 'F': 6.0}",8,0,"['F', 'Li', 'Nb']",116.21422500769
66544,mp-1120741,Cs2HfCl6,4.2142,"{'Cs': 2.0, 'Hf': 1.0, 'Cl': 6.0}",9,0,"['Cl', 'Cs', 'Hf']",306.324826549496
66690,mp-1213193,CsEr(WO4)2,4.7178,"{'Cs': 1.0, 'Er': 1.0, 'W': 2.0, 'O': 8.0}",12,0,"['Cs', 'Er', 'O', 'W']",265.608480237014
66768,mp-1227700,BaSr4Cl10,5.1654,"{'Ba': 1.0, 'Sr': 4.0, 'Cl': 10.0}",15,0.005395032000002,"['Ba', 'Cl', 'Sr']",451.443610840819
66801,mp-18749,NiSO4,3.266,"{'O': 8.0, 'S': 2.0, 'Ni': 2.0}",12,0,"['Ni', 'O', 'S']",133.319934865289
66836,mp-34081,NaYF4,6.9245,"{'F': 8.0, 'Na': 2.0, 'Y': 2.0}",12,0,"['Na', 'Y', 'F']",163.57790969322
66872,mp-569812,BaN3Cl,4.0803,"{'Ba': 2.0, 'N': 6.0, 'Cl': 2.0}",10,0,"['Ba', 'Cl', 'N']",202.12776540473
66899,mp-6945,SiO2,5.5482,"{'Si': 4.0, 'O': 8.0}",12,0.006111362499999,"['Si', 'O']",175.686132249612
66977,mp-9625,LiMgPO4,5.4297,"{'Li': 4.0, 'O': 16.0, 'Mg': 4.0, 'P': 4.0}",28,0,"['Li', 'Mg', 'O', 'P']",290.249447032291
67006,mp-1020026,LiBeBO3,6.0872,"{'Li': 2.0, 'Be': 2.0, 'B': 2.0, 'O': 6.0}",12,0.001419552916667,"['B', 'Be', 'Li', 'O']",104.57868099589
67185,mp-1222711,Li2GeTeO6,3.0272,"{'Li': 2.0, 'Ge': 1.0, 'Te': 1.0, 'O': 6.0}",10,0,"['Ge', 'Li', 'O', 'Te']",109.024734115203
67262,mp-17077,K2YF5,6.8082,"{'F': 20.0, 'K': 8.0, 'Y': 4.0}",32,0,"['F', 'K', 'Y']",542.22552281059
67272,mp-18814,MnCO3,3.473,"{'C': 2.0, 'O': 6.0, 'Mn': 2.0}",10,0,"['Mn', 'C', 'O']",107.615847791349
67273,mp-18852,Na2MoO4,4.3941,"{'O': 8.0, 'Na': 4.0, 'Mo': 2.0}",14,0,"['Na', 'Mo', 'O']",197.518576790659
67275,mp-19182,Ba2CaWO6,3.2724,"{'O': 6.0, 'Ca': 1.0, 'Ba': 2.0, 'W': 1.0}",10,0,"['Ba', 'Ca', 'O', 'W']",154.751906226622
67295,mp-22872,SbCl3,3.7419,"{'Cl': 12.0, 'Sb': 4.0}",16,0,"['Sb', 'Cl']",576.387277123886
67314,mp-3151,Li3TaO4,4.5395,"{'Li': 12.0, 'O': 16.0, 'Ta': 4.0}",32,0,"['Li', 'O', 'Ta']",309.665699402131
67315,mp-3379,K2SbF5,4.6939,"{'F': 10.0, 'K': 4.0, 'Sb': 2.0}",16,0.005595921249999,"['F', 'K', 'Sb']",298.606331022098
67353,mp-559276,AlBPbO4,3.0136,"{'Al': 4.0, 'B': 4.0, 'Pb': 4.0, 'O': 16.0}",28,0.002349948035715,"['Al', 'B', 'Pb', 'O']",336.20812437305
67385,mp-6500,KRb2ScF6,6.5983,"{'F': 12.0, 'K': 2.0, 'Sc': 2.0, 'Rb': 4.0}",20,0,"['F', 'K', 'Rb', 'Sc']",384.020235826501
67441,mp-768610,Sr7W4O19,3.0853,"{'Sr': 7.0, 'W': 4.0, 'O': 19.0}",30,0,"['O', 'Sr', 'W']",415.247946361807
67451,mp-772521,Li8TiO6,3.9931,"{'Li': 16.0, 'Ti': 2.0, 'O': 12.0}",30,0.004053272000004,"['Li', 'O', 'Ti']",297.038426354411
67468,mp-8355,KAlSiO4,4.5002,"{'O': 8.0, 'Al': 2.0, 'Si': 2.0, 'K': 2.0}",14,0.002591926964286,"['Al', 'K', 'O', 'Si']",209.794567684258
67607,mp-1193604,Cs2BeCl4,5.3519,"{'Cs': 8.0, 'Be': 4.0, 'Cl': 16.0}",28,0,"['Be', 'Cl', 'Cs']",926.142050163578
67722,mp-17761,CaGeO3,3.4751,"{'O': 18.0, 'Ca': 6.0, 'Ge': 6.0}",30,0,"['Ca', 'Ge', 'O']",450.165910274321
67725,mp-1875,TeF6,4.3688,"{'F': 24.0, 'Te': 4.0}",28,0.000617210714285,"['F', 'Te']",483.958548355431
67728,mp-19260,Li2WO4,3.8815,"{'Li': 4.0, 'O': 8.0, 'W': 2.0}",14,0,"['Li', 'W', 'O']",154.495640624117
67740,mp-23120,Cs2NaYCl6,5.0706,"{'Na': 1.0, 'Cl': 6.0, 'Y': 1.0, 'Cs': 2.0}",10,0,"['Cl', 'Cs', 'Na', 'Y']",324.756579806467
67753,mp-27614,Ca2V2O7,3.0398,"{'O': 14.0, 'Ca': 4.0, 'V': 4.0}",22,0,"['Ca', 'O', 'V']",303.940932844328
67788,mp-4200,ScPO4,4.5051,"{'O': 8.0, 'P': 2.0, 'Sc': 2.0}",12,0,"['Sc', 'P', 'O']",129.609956641434
67816,mp-556546,K2NiF4,4.7252,"{'K': 2.0, 'Ni': 1.0, 'F': 4.0}",7,0,"['K', 'Ni', 'F']",109.593271036643
67822,mp-558010,KEr(WO4)2,3.2875,"{'K': 2.0, 'Er': 2.0, 'W': 4.0, 'O': 16.0}",24,0,"['Er', 'K', 'O', 'W']",326.974900169822
67828,mp-558990,K2Sr(PO3)4,5.6047,"{'K': 2.0, 'Sr': 1.0, 'P': 4.0, 'O': 12.0}",19,0,"['K', 'O', 'P', 'Sr']",294.781696471436
67832,mp-560869,K3VO4,4.0426,"{'K': 12.0, 'V': 4.0, 'O': 16.0}",32,0,"['K', 'O', 'V']",605.866991473637
67840,mp-561518,Mg2BiAsO6,3.3486,"{'Mg': 4.0, 'Bi': 2.0, 'As': 2.0, 'O': 12.0}",20,0.002676596843746,"['As', 'Bi', 'Mg', 'O']",273.354162803249
67940,mp-768140,Na2BiPCO7,3.5024,"{'Na': 4.0, 'Bi': 2.0, 'P': 2.0, 'C': 2.0, 'O': 14.0}",24,0,"['Bi', 'C', 'Na', 'O', 'P']",349.285051959154
68017,mp-10509,BaGaBO3F2,4.9695,"{'B': 2.0, 'O': 6.0, 'F': 4.0, 'Ga': 2.0, 'Ba': 2.0}",16,0,"['B', 'Ba', 'F', 'Ga', 'O']",209.17511126672
68170,mp-1223679,KBP2PbO8,4.6329,"{'K': 2.0, 'B': 2.0, 'P': 4.0, 'Pb': 2.0, 'O': 16.0}",26,0,"['B', 'K', 'O', 'P', 'Pb']",377.335989218472
68178,mp-1228107,Ba6Mn2Zn(ClF2)6,4.1041,"{'Ba': 6.0, 'Mn': 2.0, 'Zn': 1.0, 'Cl': 6.0, 'F': 12.0}",27,0,"['Ba', 'Cl', 'F', 'Mn', 'Zn']",538.929603504688