,task_id,pretty_formula,band_gap,unit_cell_formula,nsites,e_above_hull,elements,volume
82507,mp-1020706,SrY2Si3O10,4.9341,"{'Sr': 2.0, 'Y': 4.0, 'Si': 6.0, 'O': 20.0}",32,0.003664054895834,"['O', 'Si', 'Sr', 'Y']",426.63210129726
82552,mp-1103527,BaBClF4,5.9708,"{'Ba': 2.0, 'B': 2.0, 'Cl': 2.0, 'F': 8.0}",14,0,"['B', 'Ba', 'Cl', 'F']",242.962112521741
82556,mp-1104268,Cs3Bi2Cl9,3.2297,"{'Cs': 3.0, 'Bi': 2.0, 'Cl': 9.0}",14,0,"['Bi', 'Cl', 'Cs']",537.507105105587
82600,mp-1187516,YbSiO3,4.1442,"{'Yb': 1.0, 'Si': 1.0, 'O': 3.0}",5,0,"['O', 'Si', 'Yb']",45.1641882321958
82646,mp-1202046,Sr2PIO4,4.252,"{'Sr': 8.0, 'P': 4.0, 'I': 4.0, 'O': 16.0}",32,0,"['I', 'O', 'P', 'Sr']",656.518220831858
82648,mp-1202176,LiY3Si2(O4F)2,5.2236,"{'Li': 2.0, 'Y': 6.0, 'Si': 4.0, 'O': 16.0, 'F': 4.0}",32,0.000610154791675,"['F', 'Li', 'O', 'Si', 'Y']",390.98895030861
82703,mp-1213682,CsEr(MoO4)2,4.0246,"{'Cs': 1.0, 'Er': 1.0, 'Mo': 2.0, 'O': 8.0}",12,0,"['Cs', 'Er', 'Mo', 'O']",260.979930722066
82709,mp-1214592,Ba2Zn3F10,4.3169,"{'Ba': 4.0, 'Zn': 6.0, 'F': 20.0}",30,0.004556250533334,"['Ba', 'F', 'Zn']",434.403837309344
82747,mp-1219643,Rb3Br2Cl,4.3459,"{'Rb': 3.0, 'Br': 2.0, 'Cl': 1.0}",6,0.005593353333334,"['Br', 'Cl', 'Rb']",248.22396683612
82802,mp-14734,CsCOF3,6.1156,"{'C': 4.0, 'O': 4.0, 'F': 12.0, 'Cs': 4.0}",24,0,"['C', 'Cs', 'F', 'O']",462.667635904657
82807,mp-1707,BaN6,3.8159,"{'N': 12.0, 'Ba': 2.0}",14,0,"['Ba', 'N']",237.796675023027
82843,mp-29144,KTe2F9,4.5111,"{'F': 18.0, 'K': 2.0, 'Te': 4.0}",24,0,"['F', 'K', 'Te']",417.351034346397
82845,mp-30146,CaSn2F6,3.5042,"{'F': 12.0, 'Ca': 2.0, 'Sn': 4.0}",18,0.004891727777776,"['Ca', 'F', 'Sn']",319.01277430319
82850,mp-3164,BaSO4,5.9507,"{'Ba': 4.0, 'S': 4.0, 'O': 16.0}",24,0,"['Ba', 'S', 'O']",363.605520725608
82856,mp-4533,Na2SiO3,3.861,"{'O': 6.0, 'Na': 4.0, 'Si': 2.0}",12,0,"['Na', 'Si', 'O']",159.580606608152
82886,mp-580589,Cs2NaErCl6,5.3478,"{'Cs': 2.0, 'Na': 1.0, 'Er': 1.0, 'Cl': 6.0}",10,0,"['Cl', 'Cs', 'Er', 'Na']",319.291978661484
82947,mp-7604,Mg3NF3,3.5817,"{'N': 1.0, 'F': 3.0, 'Mg': 3.0}",7,0,"['Mg', 'N', 'F']",77.3796495068684
83025,mp-1078217,NaFeF3,3.1338,"{'Na': 2.0, 'Fe': 2.0, 'F': 6.0}",10,0.009143415499998,"['F', 'Fe', 'Na']",124.05286977996
83049,mp-1113049,Cs2KGdCl6,3.0499,"{'Cs': 2.0, 'K': 1.0, 'Gd': 1.0, 'Cl': 6.0}",10,0,"['Cl', 'Cs', 'Gd', 'K']",370.782030654241
83097,mp-1191459,KZn(BO2)3,4.4976,"{'K': 2.0, 'Zn': 2.0, 'B': 6.0, 'O': 12.0}",22,0,"['B', 'K', 'O', 'Zn']",280.8072381373
83148,mp-1214000,Cs2ErCl5,4.9712,"{'Cs': 8.0, 'Er': 4.0, 'Cl': 20.0}",32,0,"['Cl', 'Cs', 'Er']",1145.44501724088
83192,mp-1227878,BaPb(SO4)2,4.2041,"{'Ba': 2.0, 'Pb': 2.0, 'S': 4.0, 'O': 16.0}",24,0.006822375416668,"['Ba', 'O', 'Pb', 'S']",346.219226618224
83193,mp-1228141,Ba3CaTa2O9,3.2522,"{'Ba': 3.0, 'Ca': 1.0, 'Ta': 2.0, 'O': 9.0}",15,0,"['Ba', 'Ca', 'O', 'Ta']",227.669768940628
83223,mp-1265,MgO,4.4449,"{'O': 1.0, 'Mg': 1.0}",2,0,"['Mg', 'O']",19.2793673194768
83242,mp-19226,NaFePO4,3.8276,"{'O': 16.0, 'Na': 4.0, 'P': 4.0, 'Fe': 4.0}",28,0,"['Na', 'Fe', 'P', 'O']",323.344671660013
83254,mp-22398,FeF3,3.1067,"{'F': 6.0, 'Fe': 2.0}",8,0.000175600833333,"['F', 'Fe']",104.31753706308
83278,mp-27211,KSb4F13,4.6708,"{'F': 13.0, 'K': 1.0, 'Sb': 4.0}",18,0,"['F', 'K', 'Sb']",308.052445130945
83285,mp-28391,SiCl4,5.5541,"{'Si': 4.0, 'Cl': 16.0}",20,0,"['Si', 'Cl']",728.815310225379
83347,mp-557658,RbZnB(PO4)2,5.0408,"{'Rb': 2.0, 'Zn': 2.0, 'B': 2.0, 'P': 4.0, 'O': 16.0}",26,0,"['B', 'O', 'P', 'Rb', 'Zn']",369.129535165145
83354,mp-559871,AlF3,7.5154,"{'Al': 6.0, 'F': 18.0}",24,0.000647497083333,"['Al', 'F']",308.352326060806
83357,mp-561197,TaF5,5.5343,"{'Ta': 4.0, 'F': 20.0}",24,0,"['F', 'Ta']",380.837687510537
83411,mp-754863,Li2MnFe(BO3)2,3.1275,"{'Li': 4.0, 'Mn': 2.0, 'Fe': 2.0, 'B': 4.0, 'O': 12.0}",24,0.002283410555552,"['B', 'Fe', 'Li', 'Mn', 'O']",249.291286115132
83416,mp-755639,Li4MnFe3(BO3)4,3.1595,"{'Li': 4.0, 'Mn': 1.0, 'Fe': 3.0, 'B': 4.0, 'O': 12.0}",24,0.002618701319446,"['B', 'Fe', 'Li', 'Mn', 'O']",246.508819370909
83595,mp-1194272,ZrF4,4.5914,"{'Zr': 6.0, 'F': 24.0}",30,0.005462114,"['F', 'Zr']",385.115567333271
83709,mp-17973,Cs3GeF7,4.3869,"{'F': 14.0, 'Ge': 2.0, 'Cs': 6.0}",22,0.002275560909092,"['Cs', 'F', 'Ge']",466.29980979679
83740,mp-29178,TePbF6,4.5803,"{'F': 24.0, 'Te': 4.0, 'Pb': 4.0}",32,0,"['F', 'Pb', 'Te']",525.994420165533
83746,mp-30980,NaYO2,4.1331,"{'O': 8.0, 'Na': 4.0, 'Y': 4.0}",16,0,"['Na', 'O', 'Y']",224.814372473957
83776,mp-557209,NiBiAsO5,3.0241,"{'Ni': 2.0, 'Bi': 2.0, 'As': 2.0, 'O': 10.0}",16,0,"['As', 'Bi', 'Ni', 'O']",217.646650815802
83796,mp-560851,CsIOF4,4.9412,"{'Cs': 4.0, 'I': 4.0, 'O': 4.0, 'F': 16.0}",28,0,"['Cs', 'F', 'I', 'O']",615.452172573893
83799,mp-561441,Y2GeO5,4.0923,"{'Y': 8.0, 'Ge': 4.0, 'O': 20.0}",32,0,"['Ge', 'O', 'Y']",466.923698058683
83800,mp-561457,CsAlSiO4,4.4582,"{'Cs': 4.0, 'Al': 4.0, 'Si': 4.0, 'O': 16.0}",28,0,"['Al', 'Cs', 'O', 'Si']",475.761629082655
83870,mp-696416,NaSi3BO8,5.278,"{'Na': 2.0, 'Si': 6.0, 'B': 2.0, 'O': 16.0}",26,0.004953313012821,"['B', 'Na', 'O', 'Si']",303.199563366322
83914,mp-756125,Li2MnFe(BO3)2,3.1446,"{'Li': 4.0, 'Mn': 2.0, 'Fe': 2.0, 'B': 4.0, 'O': 12.0}",24,0.001618565555551,"['B', 'Fe', 'Li', 'Mn', 'O']",248.740231913068
84181,mp-1219649,Rb2W(OF2)2,3.1721,"{'Rb': 2.0, 'W': 1.0, 'O': 2.0, 'F': 4.0}",9,0,"['F', 'O', 'Rb', 'W']",163.005823520088
84185,mp-1221317,Na2ScIn(SiO3)4,4.272,"{'Na': 2.0, 'Sc': 1.0, 'In': 1.0, 'Si': 4.0, 'O': 12.0}",20,0.0018363175,"['In', 'Na', 'O', 'Sc', 'Si']",238.923898812914
84207,mp-1228970,Al8Zn3CoO16,3.2403,"{'Al': 8.0, 'Zn': 3.0, 'Co': 1.0, 'O': 16.0}",28,0,"['Al', 'Co', 'O', 'Zn']",273.607187382527
84242,mp-19302,NaCaVO4,3.6886,"{'O': 8.0, 'Na': 2.0, 'Ca': 2.0, 'V': 2.0}",14,0,"['Ca', 'Na', 'O', 'V']",202.817328432997
84303,mp-568145,Ar,8.5064,{'Ar': 2.0},2,0.000821785,['Ar'],90.0375472982008
84326,mp-6456,LiNbGeO5,3.386,"{'Li': 4.0, 'O': 20.0, 'Ge': 4.0, 'Nb': 4.0}",32,0,"['Ge', 'Li', 'Nb', 'O']",410.781759728167
84337,mp-6872,K3SiN(OF2)3,3.3592,"{'N': 2.0, 'O': 6.0, 'F': 12.0, 'Si': 2.0, 'K': 6.0}",28,0.002316140892852,"['F', 'K', 'N', 'O', 'Si']",422.204121924876
84409,mp-771063,Li4Fe3Ni(PO4)4,3.0471,"{'Li': 4.0, 'Fe': 3.0, 'Ni': 1.0, 'P': 4.0, 'O': 16.0}",28,0.001853931696431,"['Fe', 'Li', 'Ni', 'O', 'P']",298.246985438008
84492,mvc-15847,CaMnF6,3.0655,"{'Ca': 1.0, 'Mn': 1.0, 'F': 6.0}",8,0,"['Ca', 'F', 'Mn']",126.753610737376
84586,mp-1111106,K2NaGaF6,5.9471,"{'K': 2.0, 'Na': 1.0, 'Ga': 1.0, 'F': 6.0}",10,0,"['F', 'Ga', 'K', 'Na']",148.417307670895
84685,mp-1191141,SrLi2SiO4,4.6677,"{'Sr': 3.0, 'Li': 6.0, 'Si': 3.0, 'O': 12.0}",24,0,"['Li', 'O', 'Si', 'Sr']",281.312380816675
84750,mp-1220764,NaHfScO4,4.1064,"{'Na': 4.0, 'Hf': 4.0, 'Sc': 4.0, 'O': 16.0}",28,0,"['Hf', 'Na', 'O', 'Sc']",345.827278269759
84796,mp-17382,Rb2Si3SnO9,3.8034,"{'O': 18.0, 'Si': 6.0, 'Rb': 4.0, 'Sn': 2.0}",30,0,"['O', 'Rb', 'Si', 'Sn']",444.962889359095
84846,mp-5185,K2BeF4,6.8711,"{'Be': 4.0, 'F': 16.0, 'K': 8.0}",28,0,"['Be', 'F', 'K']",430.586664784656
84850,mp-540578,Cs2ZnCl4,4.5412,"{'Zn': 4.0, 'Cs': 8.0, 'Cl': 16.0}",28,0,"['Cl', 'Cs', 'Zn']",994.713055351648
84863,mp-555344,Hf2P2O9,4.8994,"{'Hf': 4.0, 'P': 4.0, 'O': 18.0}",26,0,"['Hf', 'O', 'P']",346.367303092748
84867,mp-557012,Li3Sc(BO3)2,4.5494,"{'Li': 6.0, 'Sc': 2.0, 'B': 4.0, 'O': 12.0}",24,0,"['B', 'Li', 'O', 'Sc']",238.613839116594
85005,mp-1025456,CaZrF6,6.6727,"{'Ca': 1.0, 'Zr': 1.0, 'F': 6.0}",8,0,"['Ca', 'Zr', 'F']",160.581057272167
85052,mp-1111080,K3GaF6,5.8061,"{'K': 3.0, 'Ga': 1.0, 'F': 6.0}",10,0,"['F', 'Ga', 'K']",173.827597295248
85193,mp-1211678,KBeF3,7.0581,"{'K': 4.0, 'Be': 4.0, 'F': 12.0}",20,0,"['Be', 'F', 'K']",305.56424542848
85278,mp-1228063,Ba3TiAl10O20,3.2014,"{'Ba': 3.0, 'Ti': 1.0, 'Al': 10.0, 'O': 20.0}",34,0.007036871963233,"['Al', 'Ba', 'O', 'Ti']",434.562927714257
85311,mp-16136,Sr3TaGa3(SiO7)2,3.8553,"{'O': 14.0, 'Si': 2.0, 'Ga': 3.0, 'Sr': 3.0, 'Ta': 1.0}",23,0,"['Ga', 'O', 'Si', 'Sr', 'Ta']",314.357937890822
85324,mp-22628,CsNO3,3.0696,"{'N': 2.0, 'O': 6.0, 'Cs': 2.0}",10,0.006010940777776,"['Cs', 'N', 'O']",186.485378093636
85350,mp-36526,AcOF,4.2614,"{'Ac': 1.0, 'F': 1.0, 'O': 1.0}",3,0,"['Ac', 'O', 'F']",53.3503106713762
85356,mp-504827,Ga10GePb3O20,3.0294,"{'Pb': 3.0, 'Ge': 1.0, 'Ga': 10.0, 'O': 20.0}",34,0,"['Ga', 'Ge', 'O', 'Pb']",460.347040190523
85373,mp-561538,MgVBiO5,3.1101,"{'Mg': 4.0, 'V': 4.0, 'Bi': 4.0, 'O': 20.0}",32,0,"['Bi', 'Mg', 'O', 'V']",466.966730900787
85381,mp-5707,CsAsF4,4.6201,"{'F': 8.0, 'As': 2.0, 'Cs': 2.0}",12,0,"['As', 'Cs', 'F']",268.740193627064
85553,mp-1105915,CsSnF3,3.8484,"{'Cs': 4.0, 'Sn': 4.0, 'F': 12.0}",20,0,"['Cs', 'F', 'Sn']",483.022756694226
85557,mp-1112628,Cs2YInCl6,3.3996,"{'Cs': 2.0, 'Y': 1.0, 'In': 1.0, 'Cl': 6.0}",10,0.00933821528125,"['Cl', 'Cs', 'In', 'Y']",374.783470456719
85650,mp-1214420,BaHfF6,7.1463,"{'Ba': 2.0, 'Hf': 2.0, 'F': 12.0}",16,0,"['Ba', 'F', 'Hf']",247.066396051892
85651,mp-1215975,YSn2BiO7,3.1046,"{'Y': 2.0, 'Sn': 4.0, 'Bi': 2.0, 'O': 14.0}",22,0.00343672776515,"['Bi', 'O', 'Sn', 'Y']",299.92393192435
85768,mp-20282,CsPbF3,3.3457,"{'F': 6.0, 'Cs': 2.0, 'Pb': 2.0}",10,0,"['Cs', 'F', 'Pb']",232.146781986967
85784,mp-23024,SrBrF,5.0003,"{'F': 2.0, 'Br': 2.0, 'Sr': 2.0}",6,0,"['Sr', 'Br', 'F']",135.974479137053
85796,mp-27154,Rb2CrF5,3.4235,"{'F': 20.0, 'Cr': 4.0, 'Rb': 8.0}",32,0,"['Cr', 'F', 'Rb']",554.185958163705
85804,mp-28600,Rb2FeF5,3.6931,"{'F': 20.0, 'Fe': 4.0, 'Rb': 8.0}",32,0,"['F', 'Fe', 'Rb']",559.921273992247
85813,mp-30034,MgBr2,4.4707,"{'Mg': 1.0, 'Br': 2.0}",3,0,"['Mg', 'Br']",91.8275355528768
85815,mp-30219,KGaCl4,4.3612,"{'Cl': 16.0, 'K': 4.0, 'Ga': 4.0}",24,0,"['Cl', 'Ga', 'K']",756.038482006863
85816,mp-30299,RbAsO2,3.8842,"{'O': 8.0, 'As': 4.0, 'Rb': 4.0}",16,0,"['As', 'O', 'Rb']",341.032055764313
85861,mp-556488,RbNiF3,4.6928,"{'F': 18.0, 'Ni': 6.0, 'Rb': 6.0}",30,0,"['F', 'Ni', 'Rb']",441.739833243777
85864,mp-557676,LiGa(MoO4)2,3.551,"{'Li': 2.0, 'Ga': 2.0, 'Mo': 4.0, 'O': 16.0}",24,0.008507264907411,"['Ga', 'Li', 'Mo', 'O']",330.880965445256
85915,mp-733,GeO2,3.2511,"{'O': 6.0, 'Ge': 3.0}",9,0,"['Ge', 'O']",129.144563313155
85943,mp-761033,Hf3N2O3,3.1617,"{'Hf': 6.0, 'N': 4.0, 'O': 6.0}",16,0,"['Hf', 'N', 'O']",224.844685093858
85990,mp-985590,SiO2,5.5161,"{'Si': 8.0, 'O': 16.0}",24,0.004114588333334,"['O', 'Si']",389.023603915875
86133,mp-1213392,CsGd(MoO4)2,3.0777,"{'Cs': 2.0, 'Gd': 2.0, 'Mo': 4.0, 'O': 16.0}",24,0,"['Cs', 'Gd', 'Mo', 'O']",414.070366553279
86178,mp-1225927,CsMgGaF6,5.4755,"{'Cs': 2.0, 'Mg': 2.0, 'Ga': 2.0, 'F': 12.0}",18,0,"['Cs', 'F', 'Ga', 'Mg']",282.260386046295
86225,mp-2659,LiN3,3.6497,"{'Li': 1.0, 'N': 3.0}",4,0,"['Li', 'N']",45.4173189999725
86231,mp-28567,LiBiF4,4.8641,"{'Bi': 2.0, 'Li': 2.0, 'F': 8.0}",12,0,"['Li', 'Bi', 'F']",162.416922295756
86261,mp-554542,Mg3B(OF)3,5.4164,"{'Mg': 6.0, 'B': 2.0, 'O': 6.0, 'F': 6.0}",20,0,"['B', 'F', 'Mg', 'O']",215.441144531925
86288,mp-561005,SrBi6(PO5)4,3.5011,"{'Sr': 1.0, 'Bi': 6.0, 'P': 4.0, 'O': 20.0}",31,0,"['Bi', 'O', 'P', 'Sr']",440.442328485535
86355,mp-674508,RbPbF3,3.8135,"{'Rb': 2.0, 'Pb': 2.0, 'F': 6.0}",10,0,"['F', 'Pb', 'Rb']",218.24955612952
86387,mp-7029,SiO2,5.5088,"{'O': 8.0, 'Si': 4.0}",12,0.003005180000001,"['O', 'Si']",183.244602120719
86601,mp-1193173,Cs2ZnBr4,3.8234,"{'Cs': 8.0, 'Zn': 4.0, 'Br': 16.0}",28,0,"['Br', 'Cs', 'Zn']",1167.17176605335
86621,mp-1205629,Cs3FeF6,3.952,"{'Cs': 3.0, 'Fe': 1.0, 'F': 6.0}",10,0,"['Cs', 'F', 'Fe']",221.833440533542
86640,mp-1213783,Cs2YCl5,4.7551,"{'Cs': 8.0, 'Y': 4.0, 'Cl': 20.0}",32,0,"['Cl', 'Cs', 'Y']",1162.96394113469
86668,mp-1222009,MgMnB2O5,3.4878,"{'Mg': 2.0, 'Mn': 2.0, 'B': 4.0, 'O': 10.0}",18,0,"['B', 'Mg', 'Mn', 'O']",186.424239945088
86696,mp-12317,SrCN2,3.2178,"{'C': 1.0, 'N': 2.0, 'Sr': 1.0}",4,0,"['Sr', 'C', 'N']",70.384014689917
86733,mp-27231,Li2TeO3,3.6484,"{'Li': 8.0, 'O': 12.0, 'Te': 4.0}",24,0,"['Li', 'O', 'Te']",353.294639228927
86766,mp-546757,Sn3PO4F3,3.7957,"{'F': 3.0, 'Sn': 3.0, 'O': 4.0, 'P': 1.0}",11,0,"['F', 'O', 'P', 'Sn']",201.598337166656
86769,mp-553938,KGd(WO4)2,3.1253,"{'K': 2.0, 'Gd': 2.0, 'W': 4.0, 'O': 16.0}",24,0.000348271249999,"['Gd', 'K', 'O', 'W']",334.167631764659
86779,mp-558798,BiPO4,3.7306,"{'Bi': 2.0, 'P': 2.0, 'O': 8.0}",12,0,"['Bi', 'P', 'O']",166.912567640718
86976,mp-989618,Cs2RbGaF6,5.9393,"{'Cs': 2.0, 'Rb': 1.0, 'Ga': 1.0, 'F': 6.0}",10,0,"['Cs', 'F', 'Ga', 'Rb']",202.966317818687
86980,mp-998536,RbCaBr3,4.2996,"{'Rb': 4.0, 'Ca': 4.0, 'Br': 12.0}",20,0.000777308999999,"['Br', 'Ca', 'Rb']",712.998518305067
86981,mp-998552,BaHfO3,3.5424,"{'Ba': 1.0, 'Hf': 1.0, 'O': 3.0}",5,0,"['Ba', 'Hf', 'O']",74.3255196421235
87013,mp-1020658,NaB(SO4)2,6.0208,"{'Na': 2.0, 'B': 2.0, 'S': 4.0, 'O': 16.0}",24,0,"['B', 'Na', 'O', 'S']",318.928251884627
87173,mp-1192111,LiEr(WO4)2,3.8102,"{'Li': 2.0, 'Er': 2.0, 'W': 4.0, 'O': 16.0}",24,0,"['Er', 'Li', 'O', 'W']",301.046233337165
87208,mp-1209982,NaMoO3F,3.2264,"{'Na': 2.0, 'Mo': 2.0, 'O': 6.0, 'F': 2.0}",12,0,"['F', 'Mo', 'Na', 'O']",172.160057155642
87272,mp-13907,CdSnF6,3.8554,"{'F': 6.0, 'Cd': 1.0, 'Sn': 1.0}",8,0,"['Cd', 'Sn', 'F']",131.333536402387
87308,mp-2452,P2O5,5.3472,"{'O': 10.0, 'P': 4.0}",14,0,"['P', 'O']",187.952899404448
87349,mp-542201,Ba3Nb2O8,4.4995,"{'Ba': 3.0, 'Nb': 2.0, 'O': 8.0}",13,0,"['Ba', 'Nb', 'O']",237.199842053158
87352,mp-554817,Ba3CaSb2O9,3.1626,"{'Ba': 6.0, 'Ca': 2.0, 'Sb': 4.0, 'O': 18.0}",30,0,"['Ba', 'Ca', 'O', 'Sb']",484.257084758919
87354,mp-556235,CaCO3,4.9598,"{'Ca': 4.0, 'C': 4.0, 'O': 12.0}",20,0.002014620500001,"['Ca', 'C', 'O']",253.065833469756
87360,mp-558387,TeOF2,4.189,"{'Te': 4.0, 'O': 4.0, 'F': 8.0}",16,0,"['F', 'O', 'Te']",258.385868497384
87390,mp-6493,CaMgSiO4,4.6294,"{'O': 16.0, 'Mg': 4.0, 'Si': 4.0, 'Ca': 4.0}",28,0,"['Ca', 'Mg', 'Si', 'O']",351.445439981003
87448,mp-770408,Rb6Ti2O7,3.2141,"{'Rb': 12.0, 'Ti': 4.0, 'O': 14.0}",30,0,"['O', 'Rb', 'Ti']",665.997454303288
87478,mp-9348,KRb2ScF6,6.5168,"{'F': 6.0, 'K': 1.0, 'Sc': 1.0, 'Rb': 2.0}",10,0.002328838,"['F', 'K', 'Rb', 'Sc']",191.337244967709
87490,mp-989566,Rb2InGaF6,3.2851,"{'Rb': 2.0, 'In': 1.0, 'Ga': 1.0, 'F': 6.0}",10,0.00284214100926,"['Rb', 'In', 'Ga', 'F']",188.139204377175
87653,mp-1205547,Ba2GdTaO6,3.199,"{'Ba': 2.0, 'Gd': 1.0, 'Ta': 1.0, 'O': 6.0}",10,0.003962701000001,"['Ba', 'Gd', 'O', 'Ta']",158.861793423968
87677,mp-1209379,RbCOF3,6.3685,"{'Rb': 4.0, 'C': 4.0, 'O': 4.0, 'F': 12.0}",24,0,"['C', 'F', 'O', 'Rb']",385.023461046627
87802,mp-22968,NaClO4,5.4505,"{'O': 8.0, 'Na': 2.0, 'Cl': 2.0}",12,0,"['Cl', 'Na', 'O']",169.929415240129
87811,mp-28243,RbLiCl2,5.1482,"{'Rb': 2.0, 'Li': 2.0, 'Cl': 4.0}",8,0.0041268625,"['Cl', 'Li', 'Rb']",222.31716256499
87821,mp-3427,LiAlO2,4.5899,"{'Li': 4.0, 'O': 8.0, 'Al': 4.0}",16,0,"['Li', 'Al', 'O']",173.063562660293
87845,mp-554089,SiO2,5.6604,"{'Si': 4.0, 'O': 8.0}",12,0.003188810833333,"['Si', 'O']",181.1639179071
87848,mp-555580,SrZr4(PO4)6,4.3718,"{'Sr': 1.0, 'Zr': 4.0, 'P': 6.0, 'O': 24.0}",35,0,"['O', 'P', 'Sr', 'Zr']",534.812509553869
87856,mp-558753,BiB2O4F,4.1964,"{'Bi': 3.0, 'B': 6.0, 'O': 12.0, 'F': 3.0}",24,0,"['B', 'Bi', 'F', 'O']",260.886868122594
87857,mp-559012,Na2MnP2O7,3.9203,"{'Na': 4.0, 'Mn': 2.0, 'P': 4.0, 'O': 14.0}",24,0.003587322407403,"['Mn', 'Na', 'O', 'P']",302.486116004496
87866,mp-561442,Y2Hf2O7,3.3496,"{'Y': 4.0, 'Hf': 4.0, 'O': 14.0}",22,5.77077272723159E-05,"['Y', 'Hf', 'O']",291.575163417324
87867,mp-561681,CsSO3,5.1104,"{'Cs': 4.0, 'S': 4.0, 'O': 12.0}",20,0,"['Cs', 'O', 'S']",435.605566201998
87910,mp-752508,Cs2WO4,4.5335,"{'Cs': 4.0, 'W': 2.0, 'O': 8.0}",14,0,"['Cs', 'O', 'W']",348.251548364565
88044,mp-1112661,Cs2NaBiBr6,3.044,"{'Cs': 2.0, 'Na': 1.0, 'Bi': 1.0, 'Br': 6.0}",10,0.001276567000001,"['Bi', 'Br', 'Cs', 'Na']",395.306235892645
88045,mp-1112759,Cs2KInCl6,3.4837,"{'Cs': 2.0, 'K': 1.0, 'In': 1.0, 'Cl': 6.0}",10,0,"['Cl', 'Cs', 'In', 'K']",347.13244497953
88098,mp-1193116,KBe2B3O7,5.5359,"{'K': 2.0, 'Be': 4.0, 'B': 6.0, 'O': 14.0}",26,0.000983356794866,"['B', 'Be', 'K', 'O']",287.876696418693
88127,mp-1206552,BaBiBrO2,3.114,"{'Ba': 2.0, 'Bi': 2.0, 'Br': 2.0, 'O': 4.0}",10,0,"['Ba', 'Bi', 'Br', 'O']",243.083369505047
88139,mp-1210115,NaSrPO4,4.5275,"{'Na': 4.0, 'Sr': 4.0, 'P': 4.0, 'O': 16.0}",28,0,"['Na', 'O', 'P', 'Sr']",383.17279172451
88251,mp-12807,KAlO2,3.7538,"{'O': 8.0, 'Al': 4.0, 'K': 4.0}",16,0.00395889859375,"['Al', 'K', 'O']",242.40139838121
88276,mp-18890,CaFe(SiO3)2,3.0854,"{'Ca': 2.0, 'Fe': 2.0, 'Si': 4.0, 'O': 12.0}",20,0.007247717749996,"['Ca', 'Fe', 'O', 'Si']",234.762784206259
88279,mp-19365,Ba3V2O8,3.7532,"{'O': 8.0, 'V': 2.0, 'Ba': 3.0}",13,0,"['Ba', 'V', 'O']",216.997820046699
88314,mp-27207,K2MgCl4,4.7731,"{'Mg': 1.0, 'Cl': 4.0, 'K': 2.0}",7,0,"['K', 'Mg', 'Cl']",197.433961428939
88323,mp-3521,NaBF4,7.8439,"{'B': 2.0, 'F': 8.0, 'Na': 2.0}",12,0,"['Na', 'B', 'F']",151.070276016138
88332,mp-504593,Pb2CCl2O3,3.2437,"{'Pb': 8.0, 'Cl': 8.0, 'O': 12.0, 'C': 4.0}",32,0.000126547812497,"['C', 'Cl', 'O', 'Pb']",617.106427424211
88357,mp-567655,Sr2C(NCl)2,4.2037,"{'Sr': 2.0, 'C': 1.0, 'N': 2.0, 'Cl': 2.0}",7,0,"['Sr', 'C', 'N', 'Cl']",152.075131465946
88383,mp-6391,Na2ZnSiO4,3.3033,"{'Na': 4.0, 'Zn': 2.0, 'Si': 2.0, 'O': 8.0}",16,0,"['Na', 'O', 'Si', 'Zn']",208.241016553671
88424,mp-757149,Sr2Hf7O16,4.4175,"{'Sr': 2.0, 'Hf': 7.0, 'O': 16.0}",25,0.002196849700001,"['Hf', 'O', 'Sr']",317.658789826619
88492,mp-998428,CsCaI3,3.6642,"{'Cs': 4.0, 'Ca': 4.0, 'I': 12.0}",20,0,"['Ca', 'Cs', 'I']",932.398587439414
88509,mp-1020797,Y(PO3)3,5.6193,"{'Y': 2.0, 'P': 6.0, 'O': 18.0}",26,0.009193179807692,"['O', 'P', 'Y']",411.576708041899
88691,mp-12309,Cs2NaAl3F12,6.9181,"{'Cs': 2.0, 'Na': 1.0, 'Al': 3.0, 'F': 12.0}",18,0,"['Al', 'Cs', 'F', 'Na']",272.61925439248
88717,mp-13703,Al4CO4,3.8267,"{'C': 2.0, 'O': 8.0, 'Al': 8.0}",18,0,"['Al', 'C', 'O']",228.862894139223
88718,mp-14638,Rb2LiGaF6,6.1125,"{'Li': 2.0, 'F': 12.0, 'Ga': 2.0, 'Rb': 4.0}",20,0,"['F', 'Ga', 'Li', 'Rb']",298.427460027845
88736,mp-22430,BAsPbO5,3.3862,"{'B': 3.0, 'O': 15.0, 'As': 3.0, 'Pb': 3.0}",24,0.004965033359373,"['As', 'B', 'O', 'Pb']",320.602556065657
88740,mp-22908,BiCl3,3.3556,"{'Cl': 12.0, 'Bi': 4.0}",16,0,"['Bi', 'Cl']",501.037620324613
88762,mp-306,B2O3,6.3063,"{'B': 6.0, 'O': 9.0}",15,0,"['B', 'O']",144.607621990226
88788,mp-541111,AlGaCl4,4.2293,"{'Ga': 4.0, 'Al': 4.0, 'Cl': 16.0}",24,0,"['Al', 'Cl', 'Ga']",714.385031943992
88795,mp-554081,Ca2PClO4,5.3708,"{'Ca': 8.0, 'P': 4.0, 'Cl': 4.0, 'O': 16.0}",32,0,"['Ca', 'Cl', 'O', 'P']",481.131494642847
88800,mp-554899,CsAlF4,6.9751,"{'Cs': 3.0, 'Al': 3.0, 'F': 12.0}",18,0.005789333194445,"['Al', 'Cs', 'F']",302.928858384945
88810,mp-558430,BaB2F8,8.057,"{'Ba': 1.0, 'B': 2.0, 'F': 8.0}",11,0,"['B', 'Ba', 'F']",146.815610574203
88819,mp-560023,NiSnF6,4.0975,"{'F': 6.0, 'Ni': 1.0, 'Sn': 1.0}",8,0,"['Ni', 'Sn', 'F']",110.411669821327
88833,mp-567771,Ba(Si3N4)2,3.2694,"{'Ba': 1.0, 'Si': 6.0, 'N': 8.0}",15,0,"['Ba', 'Si', 'N']",183.628888417767
88900,mp-754006,Li4AlCr3O8,3.1242,"{'Li': 4.0, 'Al': 1.0, 'Cr': 3.0, 'O': 8.0}",16,0.008759551093751,"['Al', 'Cr', 'Li', 'O']",143.832867812268
88929,mp-7648,SiO2,5.3774,"{'Si': 4.0, 'O': 8.0}",12,0.008970983333333,"['O', 'Si']",203.809291382046
89137,mp-1211728,K3In(IO3)6,3.2504,"{'K': 3.0, 'In': 1.0, 'I': 6.0, 'O': 18.0}",28,0,"['I', 'In', 'K', 'O']",497.171966604051
89163,mp-1221248,Na3B2PO5F4,5.3977,"{'Na': 6.0, 'B': 4.0, 'P': 2.0, 'O': 10.0, 'F': 8.0}",30,0.001444345500008,"['B', 'F', 'Na', 'O', 'P']",388.418057140762
89236,mp-29252,Sn2ClF3,3.5509,"{'F': 12.0, 'Cl': 4.0, 'Sn': 8.0}",24,0.006251537083333,"['Cl', 'F', 'Sn']",510.580001035056
89247,mp-4056,CaSc2O4,3.458,"{'O': 16.0, 'Ca': 4.0, 'Sc': 8.0}",28,0,"['Ca', 'Sc', 'O']",337.39266700355
89274,mp-558491,BaAlBO3F2,6.0694,"{'Ba': 2.0, 'Al': 2.0, 'B': 2.0, 'O': 6.0, 'F': 4.0}",16,0,"['Al', 'B', 'Ba', 'F', 'O']",202.796891758556
89295,mp-614456,He,17.9023,{'He': 1.0},1,0.00936299,['He'],12.6436838039473