,task_id,pretty_formula,band_gap,unit_cell_formula,nsites,e_above_hull,elements,volume
32325,mp-4002,Li2ZrF6,6.4809,"{'Li': 2.0, 'F': 6.0, 'Zr': 1.0}",9,0,"['Li', 'Zr', 'F']",105.167863390418
32344,mp-550751,BaBeSiO4,4.5488,"{'O': 4.0, 'Be': 1.0, 'Si': 1.0, 'Ba': 1.0}",7,0,"['Ba', 'Be', 'O', 'Si']",99.4101826237359
32350,mp-555292,PNF2,5.1487,"{'P': 8.0, 'N': 8.0, 'F': 16.0}",32,0.003394228125002,"['F', 'N', 'P']",527.350645162863
32358,mp-558628,KLi2BO3,3.9994,"{'K': 4.0, 'Li': 8.0, 'B': 4.0, 'O': 12.0}",28,0,"['B', 'K', 'Li', 'O']",343.239497308006
32389,mp-6586,K2NaAlF6,6.8575,"{'F': 6.0, 'Na': 1.0, 'Al': 1.0, 'K': 2.0}",10,0,"['K', 'Na', 'Al', 'F']",140.747552004832
32551,mp-1111949,K2AlAgF6,3.058,"{'K': 2.0, 'Al': 1.0, 'Ag': 1.0, 'F': 6.0}",10,0,"['Ag', 'Al', 'F', 'K']",155.274965127192
32599,mp-1190898,Bi7O5F11,3.9034,"{'Bi': 7.0, 'O': 5.0, 'F': 11.0}",23,0,"['Bi', 'F', 'O']",355.394849125133
32731,mp-22417,LiNiPO4,3.9594,"{'Li': 4.0, 'O': 16.0, 'P': 4.0, 'Ni': 4.0}",28,0,"['Li', 'Ni', 'O', 'P']",284.152171636297
32751,mp-26017,LiCoPO4,3.0143,"{'Li': 4.0, 'Co': 4.0, 'P': 4.0, 'O': 16.0}",28,0.003986159107144,"['Co', 'Li', 'O', 'P']",351.49279983266
32761,mp-28513,Pb(ClO3)2,4.3473,"{'O': 12.0, 'Cl': 4.0, 'Pb': 2.0}",18,0,"['Cl', 'O', 'Pb']",293.271208572757
32789,mp-3889,NaBO2,4.1074,"{'B': 6.0, 'O': 12.0, 'Na': 6.0}",24,0,"['Na', 'B', 'O']",273.06555058513
32815,mp-553932,GaPO4,4.4398,"{'Ga': 2.0, 'P': 2.0, 'O': 8.0}",12,0.006625549999999,"['Ga', 'P', 'O']",175.437319375611
32822,mp-555235,SiO2,5.5034,"{'Si': 4.0, 'O': 8.0}",12,0.003176060833333,"['O', 'Si']",192.255013576845
32841,mp-558666,KVOF4,3.6597,"{'K': 4.0, 'V': 4.0, 'O': 4.0, 'F': 16.0}",28,0,"['F', 'K', 'O', 'V']",446.04064867235
32848,mp-560791,CsNaTiO3,3.3618,"{'Cs': 2.0, 'Na': 2.0, 'Ti': 2.0, 'O': 6.0}",12,0,"['Cs', 'Na', 'O', 'Ti']",196.287835016425
32876,mp-614311,CsCSN,4.4801,"{'Cs': 4.0, 'C': 4.0, 'S': 4.0, 'N': 4.0}",16,0,"['C', 'Cs', 'N', 'S']",445.487698122363
32905,mp-7064,Er2Si2O7,4.7942,"{'O': 7.0, 'Si': 2.0, 'Er': 2.0}",11,0,"['Er', 'Si', 'O']",144.041503266681
32989,mp-990440,Na2ZrO3,4.3594,"{'Na': 8.0, 'Zr': 4.0, 'O': 12.0}",24,0,"['Na', 'Zr', 'O']",310.912603559601
33096,mp-1190545,Ba2MgGe2O7,3.6144,"{'Ba': 4.0, 'Mg': 2.0, 'Ge': 4.0, 'O': 14.0}",24,0,"['Ba', 'Ge', 'Mg', 'O']",406.485069241629
33138,mp-1211609,K3Mg2Cl7,4.5853,"{'K': 3.0, 'Mg': 2.0, 'Cl': 7.0}",12,0.003411757083334,"['Cl', 'K', 'Mg']",325.657408736635
33146,mp-1213232,CsPO3,4.7629,"{'Cs': 4.0, 'P': 4.0, 'O': 12.0}",20,0,"['Cs', 'O', 'P']",418.288242480743
33190,mp-1228399,Ba2SrV2O8,3.7317,"{'Ba': 2.0, 'Sr': 1.0, 'V': 2.0, 'O': 8.0}",13,0.009725064871795,"['Ba', 'O', 'Sr', 'V']",208.890827202022
33222,mp-1999,Sb2O3,3.3462,"{'O': 12.0, 'Sb': 8.0}",20,0.0088967555,"['O', 'Sb']",379.338165456985
33231,mp-23057,CsLiBr2,4.1375,"{'Li': 2.0, 'Br': 4.0, 'Cs': 2.0}",8,0.00459364125,"['Br', 'Cs', 'Li']",277.188163112386
33252,mp-3967,NaNO,3.3853,"{'N': 8.0, 'O': 8.0, 'Na': 8.0}",24,0.003337867083332,"['N', 'Na', 'O']",296.13047188875
33271,mp-557539,MoF3,3.5744,"{'Mo': 2.0, 'F': 6.0}",8,0,"['F', 'Mo']",123.153215340162
33317,mp-6694,Cs2Zr(SiO3)3,4.7937,"{'O': 18.0, 'Si': 6.0, 'Zr': 2.0, 'Cs': 4.0}",30,0,"['Cs', 'O', 'Si', 'Zr']",486.023912664168
33376,mp-755859,Li4MnFe3(BO3)4,3.1835,"{'Li': 4.0, 'Mn': 1.0, 'Fe': 3.0, 'B': 4.0, 'O': 12.0}",24,0.004233908819446,"['B', 'Fe', 'Li', 'Mn', 'O']",251.2516489452
33406,mp-759900,K2LiNbO4,4.0956,"{'K': 8.0, 'Li': 4.0, 'Nb': 4.0, 'O': 16.0}",32,0,"['K', 'Li', 'Nb', 'O']",591.496779620989
33601,mp-11189,Li2MgSiO4,4.6771,"{'Li': 8.0, 'O': 16.0, 'Mg': 4.0, 'Si': 4.0}",32,0,"['Li', 'Mg', 'O', 'Si']",348.29629751097
33705,mp-1219640,Rb3I2Br,3.7504,"{'Rb': 3.0, 'I': 2.0, 'Br': 1.0}",6,0.006608645,"['Br', 'I', 'Rb']",296.878841638696
33744,mp-1228498,Ba2Sr(PO4)2,5.4149,"{'Ba': 2.0, 'Sr': 1.0, 'P': 2.0, 'O': 8.0}",13,0.008258014358973,"['Ba', 'O', 'P', 'Sr']",191.748385741763
33796,mp-29910,Sr4I6O,3.5856,"{'O': 2.0, 'Sr': 8.0, 'I': 12.0}",22,0,"['I', 'O', 'Sr']",801.524671106629
33797,mp-3051,Mg2GeO4,3.4021,"{'O': 16.0, 'Mg': 8.0, 'Ge': 4.0}",28,0,"['Ge', 'Mg', 'O']",316.708698949926
33829,mp-558102,KLiSi2O5,4.7069,"{'K': 2.0, 'Li': 2.0, 'Si': 4.0, 'O': 10.0}",18,0,"['K', 'Li', 'O', 'Si']",245.988313657649
33831,mp-559808,Cs3PO4,3.5723,"{'Cs': 12.0, 'P': 4.0, 'O': 16.0}",32,0,"['Cs', 'O', 'P']",736.023985911822
33842,mp-5840,LiScO2,3.904,"{'Li': 2.0, 'O': 4.0, 'Sc': 2.0}",8,0,"['Li', 'Sc', 'O']",83.4766926608743
33859,mp-662499,RbMgCl3,4.6099,"{'Rb': 6.0, 'Mg': 6.0, 'Cl': 18.0}",30,0.004053893333332,"['Cl', 'Mg', 'Rb']",795.018095715174
33866,mp-6870,KBe2BO3F2,6.0552,"{'Be': 2.0, 'B': 1.0, 'O': 3.0, 'F': 2.0, 'K': 1.0}",9,0,"['K', 'Be', 'B', 'O', 'F']",111.44508547877
33960,mp-8774,Rb3CO3F,3.4607,"{'C': 2.0, 'O': 6.0, 'F': 2.0, 'Rb': 6.0}",16,0.00940105375,"['C', 'F', 'O', 'Rb']",319.253093119806
33961,mp-8873,LiGeBO4,4.523,"{'Li': 1.0, 'B': 1.0, 'O': 4.0, 'Ge': 1.0}",7,0,"['Li', 'Ge', 'B', 'O']",72.7280015420193
33991,mvc-14316,CaFeF5,3.5957,"{'Ca': 2.0, 'Fe': 2.0, 'F': 10.0}",14,0,"['Ca', 'F', 'Fe']",210.616149230284
34086,mp-1180870,K3NaCr2O8,3.0544,"{'K': 6.0, 'Na': 2.0, 'Cr': 4.0, 'O': 16.0}",28,0.002044778928572,"['Cr', 'K', 'Na', 'O']",470.110367016414
34113,mp-1187317,Sr4Nb2O9,3.5684,"{'Sr': 8.0, 'Nb': 4.0, 'O': 18.0}",30,0.004267721666668,"['Nb', 'O', 'Sr']",485.21454850482
34201,mp-1210797,Li2MgGeO4,3.7548,"{'Li': 4.0, 'Mg': 2.0, 'Ge': 2.0, 'O': 8.0}",16,0,"['Ge', 'Li', 'Mg', 'O']",179.641594504797
34279,mp-1784,CsF,5.2602,"{'F': 1.0, 'Cs': 1.0}",2,0,"['Cs', 'F']",57.2493495695845
34280,mp-1818,SiF4,7.7173,"{'F': 4.0, 'Si': 1.0}",5,0,"['Si', 'F']",87.5788835314588
34281,mp-18311,BaTeW2O9,3.3998,"{'O': 18.0, 'Te': 2.0, 'Ba': 2.0, 'W': 4.0}",26,0.009887675865382,"['Ba', 'O', 'Te', 'W']",387.024612238341
34334,mp-540788,K2Mo3O10,3.3289,"{'K': 4.0, 'Mo': 6.0, 'O': 20.0}",30,0,"['K', 'Mo', 'O']",525.211607474393
34363,mp-5878,KZnF3,3.7137,"{'F': 3.0, 'K': 1.0, 'Zn': 1.0}",5,0,"['K', 'Zn', 'F']",70.5258535717089
34419,mp-759647,LiWF6,3.4687,"{'Li': 4.0, 'W': 4.0, 'F': 24.0}",32,0,"['F', 'Li', 'W']",480.672647594246
34443,mp-7744,LiSO3F,5.7849,"{'Li': 2.0, 'O': 6.0, 'F': 2.0, 'S': 2.0}",12,0,"['F', 'Li', 'O', 'S']",175.657589228183
34736,mp-1227165,Ca4Ti3Si4SnO20,3.0424,"{'Ca': 4.0, 'Ti': 3.0, 'Si': 4.0, 'Sn': 1.0, 'O': 20.0}",32,0.004175392421875,"['Ca', 'O', 'Si', 'Sn', 'Ti']",387.341642834668
34783,mp-13859,K3SiF7,5.9196,"{'F': 14.0, 'Si': 2.0, 'K': 6.0}",22,0.006583508181818,"['F', 'K', 'Si']",345.310489419617
34791,mp-16800,Sc2(SO4)3,4.3572,"{'O': 24.0, 'S': 6.0, 'Sc': 4.0}",34,0,"['O', 'S', 'Sc']",516.951679156102
34792,mp-17297,Na2GeF6,5.7857,"{'F': 18.0, 'Na': 6.0, 'Ge': 3.0}",27,0,"['F', 'Ge', 'Na']",383.139307347351
34833,mp-3397,Ba2TiO4,4.1494,"{'O': 16.0, 'Ti': 4.0, 'Ba': 8.0}",28,0,"['Ba', 'Ti', 'O']",517.097226626957
34835,mp-3637,YOF,4.954,"{'O': 2.0, 'F': 2.0, 'Y': 2.0}",6,0,"['Y', 'O', 'F']",81.3922509057896
34837,mp-38322,Mg(IO3)2,3.4803,"{'I': 4.0, 'Mg': 2.0, 'O': 12.0}",18,0,"['I', 'Mg', 'O']",280.867744043994
34845,mp-554243,SiO2,5.6227,"{'Si': 6.0, 'O': 12.0}",18,0.009172722777777,"['O', 'Si']",331.032742644395
34919,mp-756598,ErTa3O9,3.2666,"{'Er': 2.0, 'Ta': 6.0, 'O': 18.0}",26,0.00309697076923,"['Er', 'O', 'Ta']",329.175867451365
35022,mp-1071541,YbBr2,4.3169,"{'Yb': 2.0, 'Br': 4.0}",6,0,"['Br', 'Yb']",202.646836935342
35254,mp-23326,Ca4Cl6O,5.2275,"{'O': 2.0, 'Cl': 12.0, 'Ca': 8.0}",22,0,"['Ca', 'Cl', 'O']",500.532545294907
35268,mp-27257,PBr3,3.3255,"{'P': 4.0, 'Br': 12.0}",16,0,"['P', 'Br']",714.441474049838
35269,mp-27373,SnClF,3.4408,"{'Sn': 4.0, 'Cl': 4.0, 'F': 4.0}",12,0,"['Cl', 'F', 'Sn']",293.246261049649
35273,mp-27735,GaSbCl6,3.9056,"{'Cl': 24.0, 'Ga': 4.0, 'Sb': 4.0}",32,0,"['Cl', 'Ga', 'Sb']",1128.31998513065
35286,mp-2931,Li2TiO3,3.0428,"{'Li': 8.0, 'O': 12.0, 'Ti': 4.0}",24,0,"['Li', 'Ti', 'O']",218.495960195979
35303,mp-31358,RbBO2,3.9289,"{'B': 6.0, 'O': 12.0, 'Rb': 6.0}",24,0,"['B', 'O', 'Rb']",409.177550519143
35343,mp-551905,OsO4,3.258,"{'O': 4.0, 'Os': 1.0}",5,0.000915318000001,"['O', 'Os']",96.1741663883892
35363,mp-570747,N2,6.7429,{'N': 4.0},4,8.88178419700125E-16,['N'],88.074241489177
35385,mp-6763,K2Ti(Si2O5)3,3.2596,"{'O': 15.0, 'Si': 6.0, 'K': 2.0, 'Ti': 1.0}",24,0.002086659374999,"['K', 'O', 'Si', 'Ti']",332.515002501655
35468,mp-8217,Cs2GeF6,6.0358,"{'F': 6.0, 'Ge': 1.0, 'Cs': 2.0}",9,0,"['Cs', 'F', 'Ge']",192.930083084132
35559,mp-1102399,Fe2P2O7,3.6851,"{'Fe': 2.0, 'P': 2.0, 'O': 7.0}",11,0.002581181818181,"['Fe', 'O', 'P']",128.413414677769
35735,mp-27310,Na4Sn3F10,3.5473,"{'F': 20.0, 'Na': 8.0, 'Sn': 6.0}",34,0,"['F', 'Na', 'Sn']",632.506855005777
35776,mp-554263,Ca2BClO3,4.5774,"{'Ca': 8.0, 'B': 4.0, 'Cl': 4.0, 'O': 12.0}",28,0,"['B', 'Ca', 'Cl', 'O']",429.424364200524
35778,mp-555082,CsLi5(BO3)2,3.4975,"{'Cs': 2.0, 'Li': 10.0, 'B': 4.0, 'O': 12.0}",28,0,"['B', 'Cs', 'Li', 'O']",341.790282547388
35838,mp-636731,Zr(MoO4)2,3.1332,"{'Zr': 2.0, 'Mo': 4.0, 'O': 16.0}",22,0.000516985454546,"['Mo', 'O', 'Zr']",416.699575468059
35882,mp-752515,YTa3O9,3.2141,"{'Y': 2.0, 'Ta': 6.0, 'O': 18.0}",26,0,"['O', 'Ta', 'Y']",333.358714401781
35886,mp-752691,Sr3Hf2O7,4.1002,"{'Sr': 6.0, 'Hf': 4.0, 'O': 14.0}",24,0.007083764999999,"['Hf', 'O', 'Sr']",355.768451395705
35904,mp-754761,Sr2HfO4,3.8531,"{'Sr': 8.0, 'Hf': 4.0, 'O': 16.0}",28,0.005396379999999,"['Hf', 'O', 'Sr']",431.963908611355
35953,mp-772156,ErAsO4,3.5785,"{'Er': 2.0, 'As': 2.0, 'O': 8.0}",12,0,"['As', 'Er', 'O']",159.455457516983
36075,mp-1111695,K3CrF6,4.1538,"{'K': 3.0, 'Cr': 1.0, 'F': 6.0}",10,0,"['Cr', 'F', 'K']",176.686588213683
36117,mp-1190486,Sr3LiTaO6,3.9149,"{'Sr': 6.0, 'Li': 2.0, 'Ta': 2.0, 'O': 12.0}",22,0,"['Li', 'O', 'Sr', 'Ta']",319.338552941187
36121,mp-1193056,Cs2Mo3O10,3.4191,"{'Cs': 4.0, 'Mo': 6.0, 'O': 20.0}",30,0,"['Cs', 'Mo', 'O']",617.695751365179
36241,mp-17337,RbAsOF4,3.71,"{'O': 4.0, 'F': 16.0, 'As': 4.0, 'Rb': 4.0}",28,0,"['As', 'F', 'O', 'Rb']",476.372176295749
36242,mp-17832,RbBaPO4,4.9959,"{'O': 16.0, 'P': 4.0, 'Rb': 4.0, 'Ba': 4.0}",28,0,"['Ba', 'O', 'P', 'Rb']",473.663759555923
36260,mp-22697,Ni3(PO4)2,3.7435,"{'O': 16.0, 'P': 4.0, 'Ni': 6.0}",26,0,"['Ni', 'O', 'P']",286.543812585411
36287,mp-463,KF,5.9956,"{'F': 1.0, 'K': 1.0}",2,0,"['K', 'F']",39.8928738821555
36288,mp-4753,Al2SiO5,4.8355,"{'O': 20.0, 'Al': 8.0, 'Si': 4.0}",32,0,"['Al', 'Si', 'O']",352.800932572718
36289,mp-5001,Li3BN2,3.3711,"{'Li': 12.0, 'B': 4.0, 'N': 8.0}",24,0,"['B', 'Li', 'N']",228.758121997952
36300,mp-554990,Ba2MnNiClF7,3.6099,"{'Ba': 4.0, 'Mn': 2.0, 'Ni': 2.0, 'Cl': 2.0, 'F': 14.0}",24,0.002967251666667,"['Ba', 'Cl', 'F', 'Mn', 'Ni']",404.536529606931
36302,mp-555838,SnPO3F,3.6997,"{'Sn': 4.0, 'P': 4.0, 'O': 12.0, 'F': 4.0}",24,0,"['F', 'O', 'P', 'Sn']",396.043227839231
36312,mp-559454,Cs2KFeF6,4.0985,"{'F': 6.0, 'K': 1.0, 'Fe': 1.0, 'Cs': 2.0}",10,0,"['Cs', 'F', 'Fe', 'K']",195.178293782909
36315,mp-560976,KNiF3,4.3483,"{'K': 1.0, 'Ni': 1.0, 'F': 3.0}",5,0,"['K', 'Ni', 'F']",67.3779813085537
36357,mp-752413,Ca2HfO4,3.841,"{'Ca': 4.0, 'Hf': 2.0, 'O': 8.0}",14,0.003983531785712,"['Ca', 'Hf', 'O']",187.116258476012
36436,mp-7976,RbGdO2,3.0041,"{'O': 2.0, 'Rb': 1.0, 'Gd': 1.0}",4,0,"['Rb', 'Gd', 'O']",72.7339284715493
36441,mp-8564,CsK2Sc(PO4)2,4.0897,"{'O': 8.0, 'P': 2.0, 'K': 2.0, 'Sc': 1.0, 'Cs': 1.0}",14,0,"['Cs', 'K', 'O', 'P', 'Sc']",214.925072369033
36665,mp-1190761,NaGaCl4,4.2791,"{'Na': 4.0, 'Ga': 4.0, 'Cl': 16.0}",24,0,"['Cl', 'Ga', 'Na']",671.009634436525
36721,mp-1213763,ClF5,3.1003,"{'Cl': 2.0, 'F': 10.0}",12,0,"['Cl', 'F']",168.360824961814
36784,mp-13863,BaGeO3,3.5407,"{'O': 12.0, 'Ge': 4.0, 'Ba': 4.0}",20,0,"['Ba', 'Ge', 'O']",356.819469274953
36852,mp-557105,K4V2O7,3.4388,"{'K': 4.0, 'V': 2.0, 'O': 7.0}",13,0,"['K', 'O', 'V']",240.954356151004
36970,mp-7848,AlPO4,5.6811,"{'O': 4.0, 'Al': 1.0, 'P': 1.0}",6,0,"['Al', 'P', 'O']",96.2805056843972
36975,mp-866613,CsNa2Be6(BO3)5,4.5079,"{'Cs': 1.0, 'Na': 2.0, 'Be': 6.0, 'B': 5.0, 'O': 15.0}",29,0.00042512387931,"['B', 'Be', 'Cs', 'Na', 'O']",329.949536286725
37057,mp-1111621,K2NaScCl6,3.9028,"{'K': 2.0, 'Na': 1.0, 'Sc': 1.0, 'Cl': 6.0}",10,0,"['Cl', 'K', 'Na', 'Sc']",284.975962726617
37146,mp-1205862,RbSrI3,3.7457,"{'Rb': 2.0, 'Sr': 2.0, 'I': 6.0}",10,0,"['I', 'Rb', 'Sr']",480.387918576832
37176,mp-1211382,KSr2Cl5,5.2335,"{'K': 4.0, 'Sr': 8.0, 'Cl': 20.0}",32,0,"['Cl', 'K', 'Sr']",923.747328428807
37233,mp-1221047,NaEr(MoO4)2,3.2243,"{'Na': 1.0, 'Er': 1.0, 'Mo': 2.0, 'O': 8.0}",12,0,"['Er', 'Mo', 'Na', 'O']",155.124784037191
37256,mp-12243,Rb3SiF7,5.6568,"{'F': 14.0, 'Si': 2.0, 'Rb': 6.0}",22,0.003487043636364,"['F', 'Rb', 'Si']",387.966023084264
37317,mp-23400,In(IO3)3,3.415,"{'O': 18.0, 'In': 2.0, 'I': 6.0}",26,0,"['I', 'In', 'O']",443.977037340732
37342,mp-4135,RbPO3,5.1075,"{'O': 12.0, 'P': 4.0, 'Rb': 4.0}",20,0.001618731000001,"['O', 'P', 'Rb']",350.914809577551
37344,mp-4812,Zn4B6O13,3.4078,"{'B': 6.0, 'O': 13.0, 'Zn': 4.0}",23,0,"['B', 'O', 'Zn']",215.213815130889
37361,mp-554641,Sr3Mg(SiO4)2,4.6846,"{'Sr': 6.0, 'Mg': 2.0, 'Si': 4.0, 'O': 16.0}",28,0.006253121249998,"['Mg', 'O', 'Si', 'Sr']",370.360256463345
37363,mp-555548,MgAlPO5,4.9785,"{'Mg': 4.0, 'Al': 4.0, 'P': 4.0, 'O': 20.0}",32,0.004018851874999,"['Al', 'Mg', 'O', 'P']",400.420872726929
37364,mp-555946,Pb2CO3F2,3.4763,"{'Pb': 8.0, 'C': 4.0, 'O': 12.0, 'F': 8.0}",32,0.002544116874999,"['C', 'F', 'O', 'Pb']",480.179304362832
37368,mp-557397,K2MnF6,3.2754,"{'F': 6.0, 'K': 2.0, 'Mn': 1.0}",9,0,"['K', 'Mn', 'F']",146.521756698775
37375,mp-560963,Rb2NaMoF6,4.2219,"{'Rb': 2.0, 'Na': 1.0, 'Mo': 1.0, 'F': 6.0}",10,0,"['Rb', 'Na', 'Mo', 'F']",171.875247205124
37379,mp-568284,SrI2,3.8014,"{'Sr': 4.0, 'I': 8.0}",12,0,"['Sr', 'I']",534.502497082487
37405,mp-6564,Sr2MgSi2O7,4.4959,"{'O': 14.0, 'Mg': 2.0, 'Si': 4.0, 'Sr': 4.0}",24,0,"['Sr', 'Mg', 'Si', 'O']",342.674558133796
37408,mp-6800,KLiSO4,5.3245,"{'Li': 2.0, 'O': 8.0, 'S': 2.0, 'K': 2.0}",14,0,"['K', 'Li', 'O', 'S']",207.473901928111
37415,mp-721324,Gd2(MoO4)3,3.1706,"{'Gd': 4.0, 'Mo': 6.0, 'O': 24.0}",34,0.00057708367647,"['Gd', 'Mo', 'O']",610.685970217833
37426,mp-755352,Li2HfO3,4.4196,"{'Li': 4.0, 'Hf': 2.0, 'O': 6.0}",12,0,"['Li', 'Hf', 'O']",122.374404382007
37457,mp-772808,K2BiPCO7,3.7438,"{'K': 4.0, 'Bi': 2.0, 'P': 2.0, 'C': 2.0, 'O': 14.0}",24,0,"['Bi', 'C', 'K', 'O', 'P']",423.777737123058
37464,mp-7825,K2GeF6,5.7956,"{'F': 6.0, 'K': 2.0, 'Ge': 1.0}",9,0.00350524,"['F', 'Ge', 'K']",136.886813225311
37673,mp-1223494,KNaSr8(BO3)6,3.784,"{'K': 1.0, 'Na': 1.0, 'Sr': 8.0, 'B': 6.0, 'O': 18.0}",34,0.009104235367646,"['B', 'K', 'Na', 'O', 'Sr']",465.300851783997
37741,mp-19230,K3NaCr2O8,3.0597,"{'O': 8.0, 'Na': 1.0, 'K': 3.0, 'Cr': 2.0}",14,0.002212338928572,"['Cr', 'K', 'Na', 'O']",234.698287875317
37753,mp-21266,BPPbO5,4.2808,"{'B': 3.0, 'O': 15.0, 'P': 3.0, 'Pb': 3.0}",24,0,"['B', 'O', 'P', 'Pb']",295.637814351735
37766,mp-22958,KBrO3,3.8455,"{'O': 3.0, 'K': 1.0, 'Br': 1.0}",5,0,"['K', 'Br', 'O']",92.1589288340508
37781,mp-27546,CaClF,5.6712,"{'F': 2.0, 'Cl': 2.0, 'Ca': 2.0}",6,0.008431995,"['Ca', 'Cl', 'F']",106.121875099156
37782,mp-28138,Ni(ClO4)2,3.8319,"{'Ni': 1.0, 'Cl': 2.0, 'O': 8.0}",11,0,"['Cl', 'Ni', 'O']",151.315494241441
37787,mp-29177,BaTe2F10,4.873,"{'Ba': 2.0, 'Te': 4.0, 'F': 20.0}",26,0,"['Ba', 'F', 'Te']",422.47698885185
37831,mp-5132,YPO4,5.8026,"{'O': 8.0, 'P': 2.0, 'Y': 2.0}",12,0,"['O', 'P', 'Y']",148.004453638272
37855,mp-555070,BaBe2(BO3)2,5.5996,"{'Ba': 2.0, 'Be': 4.0, 'B': 4.0, 'O': 12.0}",22,0,"['B', 'Ba', 'Be', 'O']",248.941034706172
37859,mp-556049,Sr4Br6O,4.2231,"{'Sr': 8.0, 'Br': 12.0, 'O': 2.0}",22,0,"['Br', 'O', 'Sr']",663.929734609838
37983,mp-8871,CsNa2BO3,3.2504,"{'B': 2.0, 'O': 6.0, 'Na': 4.0, 'Cs': 2.0}",14,0,"['Cs', 'Na', 'B', 'O']",210.529988516068
38054,mp-1112120,Cs2RbScCl6,4.0572,"{'Cs': 2.0, 'Rb': 1.0, 'Sc': 1.0, 'Cl': 6.0}",10,0.002030720083334,"['Cl', 'Cs', 'Rb', 'Sc']",359.84457549655
38075,mp-1178403,Cs2TiO3,3.4081,"{'Cs': 4.0, 'Ti': 2.0, 'O': 6.0}",12,0,"['Cs', 'O', 'Ti']",245.395469778065
38084,mp-1184398,Cs3Mo2BrO7,3.0549,"{'Cs': 6.0, 'Mo': 4.0, 'Br': 2.0, 'O': 14.0}",26,0.00089902942308,"['Br', 'Cs', 'Mo', 'O']",650.074980888258
38201,mp-19278,BaCoP2O7,3.069,"{'Ba': 2.0, 'Co': 2.0, 'P': 4.0, 'O': 14.0}",22,0,"['Ba', 'Co', 'O', 'P']",301.693500841732
38231,mp-3855,Na2BeF4,6.7369,"{'Be': 4.0, 'F': 16.0, 'Na': 8.0}",28,0.003129816428571,"['Be', 'F', 'Na']",360.746142235674
38248,mp-5331,AlPO4,5.6143,"{'O': 12.0, 'Al': 3.0, 'P': 3.0}",18,0.008841511111112,"['Al', 'O', 'P']",247.014507449711
38266,mp-556581,Fe2PClO4,3.7911,"{'Fe': 8.0, 'P': 4.0, 'Cl': 4.0, 'O': 16.0}",32,0,"['Cl', 'Fe', 'O', 'P']",453.084467479766
38267,mp-556661,Y2SiCO7,4.7648,"{'Y': 4.0, 'Si': 2.0, 'C': 2.0, 'O': 14.0}",22,0,"['C', 'O', 'Si', 'Y']",259.002514594128
38270,mp-557673,RbBe2P3O10,5.6217,"{'Rb': 2.0, 'Be': 4.0, 'P': 6.0, 'O': 20.0}",32,0,"['Be', 'O', 'P', 'Rb']",436.032252185999
38282,mp-560029,Y3BrO4,4.2046,"{'Y': 6.0, 'Br': 2.0, 'O': 8.0}",16,0,"['Br', 'O', 'Y']",284.208920138965
38285,mp-560157,LiMgVO4,3.4858,"{'Li': 2.0, 'Mg': 2.0, 'V': 2.0, 'O': 8.0}",14,0,"['Li', 'Mg', 'O', 'V']",157.323158762251
38288,mp-560595,Ca2AsClO4,3.7954,"{'Ca': 8.0, 'As': 4.0, 'Cl': 4.0, 'O': 16.0}",32,0,"['As', 'Ca', 'Cl', 'O']",514.77480022607
38308,mp-571418,RbYbBr3,4.4851,"{'Yb': 4.0, 'Rb': 4.0, 'Br': 12.0}",20,0,"['Br', 'Rb', 'Yb']",713.89812649079
38311,mp-5769,Li3SbO4,3.0469,"{'Li': 6.0, 'O': 8.0, 'Sb': 2.0}",16,0,"['Li', 'O', 'Sb']",157.801683432702
38321,mp-616023,Cs4Fe3F10,3.1395,"{'Cs': 8.0, 'Fe': 6.0, 'F': 20.0}",34,0,"['Cs', 'F', 'Fe']",679.027890229821
38340,mp-675104,Na3YCl6,5.2611,"{'Na': 3.0, 'Y': 1.0, 'Cl': 6.0}",10,0,"['Na', 'Y', 'Cl']",277.849418091013
38708,mp-1228088,Ba4SrHf5O15,3.557,"{'Ba': 4.0, 'Sr': 1.0, 'Hf': 5.0, 'O': 15.0}",25,0.007762400200001,"['Ba', 'Hf', 'O', 'Sr']",369.493966768786
38766,mp-23155,Ar,8.5108,{'Ar': 1.0},1,0,['Ar'],44.8699520754351
38815,mp-561290,K2BiF5,4.7687,"{'K': 8.0, 'Bi': 4.0, 'F': 20.0}",32,0,"['Bi', 'F', 'K']",589.548244348776
38875,mp-756277,Er3TaO7,3.6197,"{'Er': 6.0, 'Ta': 2.0, 'O': 14.0}",22,0,"['Er', 'O', 'Ta']",292.668541660998
38895,mp-767545,Na3ZnPCO7,3.7795,"{'Na': 6.0, 'Zn': 2.0, 'P': 2.0, 'C': 2.0, 'O': 14.0}",26,0.001305906955124,"['C', 'Na', 'O', 'P', 'Zn']",312.356704009642
38904,mp-772185,Li6Hf2O7,4.4135,"{'Li': 12.0, 'Hf': 4.0, 'O': 14.0}",30,0,"['Hf', 'Li', 'O']",314.67345726961
38966,mp-9747,B4PbO7,4.2086,"{'B': 8.0, 'O': 14.0, 'Pb': 2.0}",24,0,"['B', 'O', 'Pb']",212.079008865168
39006,mp-1019535,BaAl2(SiO4)2,4.9112,"{'Ba': 1.0, 'Al': 2.0, 'Si': 2.0, 'O': 8.0}",13,0.006725245576924,"['Al', 'Ba', 'O', 'Si']",196.625768471255
39025,mp-1078186,KZn2BCl2O3,3.8404,"{'K': 1.0, 'Zn': 2.0, 'B': 1.0, 'Cl': 2.0, 'O': 3.0}",9,0,"['B', 'Cl', 'K', 'O', 'Zn']",196.594366065904
39259,mp-1223441,KBaLiZnF6,5.5615,"{'K': 1.0, 'Ba': 1.0, 'Li': 1.0, 'Zn': 1.0, 'F': 6.0}",10,0.007364692999998,"['Ba', 'F', 'K', 'Li', 'Zn']",138.456703092935
39293,mp-12797,BaBe2Si2O7,5.5695,"{'Be': 4.0, 'O': 14.0, 'Si': 4.0, 'Ba': 2.0}",24,0,"['Ba', 'Be', 'O', 'Si']",277.723054649459
39305,mp-18455,NaFeF4,3.3273,"{'F': 16.0, 'Na': 4.0, 'Fe': 4.0}",24,0,"['F', 'Fe', 'Na']",325.341584273988
39330,mp-2908,Al2ZnO4,3.847,"{'O': 8.0, 'Al': 4.0, 'Zn': 2.0}",14,0,"['Al', 'O', 'Zn']",136.732334147927
39348,mp-4770,Na2SO4,4.984,"{'O': 8.0, 'Na': 4.0, 'S': 2.0}",14,0,"['Na', 'S', 'O']",184.055000561154
39369,mp-558674,K2NaFeF6,4.0922,"{'K': 2.0, 'Na': 1.0, 'Fe': 1.0, 'F': 6.0}",10,0,"['K', 'Na', 'Fe', 'F']",151.233191559632
39467,mp-7812,GeO2,3.2779,"{'O': 8.0, 'Ge': 4.0}",12,0.000645536666667,"['Ge', 'O']",188.707790131925
39468,mp-781603,Li4Mn3Fe(BO3)4,3.0329,"{'Li': 4.0, 'Mn': 3.0, 'Fe': 1.0, 'B': 4.0, 'O': 12.0}",24,0.003669332291667,"['B', 'Fe', 'Li', 'Mn', 'O']",250.299234320082
39671,mp-1209437,RbBa2Br5,4.3651,"{'Rb': 4.0, 'Ba': 8.0, 'Br': 20.0}",32,0,"['Ba', 'Br', 'Rb']",1237.03281603723
39683,mp-1211395,KTaF6,6.2549,"{'K': 2.0, 'Ta': 2.0, 'F': 12.0}",16,0,"['F', 'K', 'Ta']",278.928533551368