,task_id,pretty_formula,band_gap,unit_cell_formula,nsites,e_above_hull,elements,volume
54105,mp-1192390,Na5Gd4Si4O16F,3.3825,"{'Na': 5.0, 'Gd': 4.0, 'Si': 4.0, 'O': 16.0, 'F': 1.0}",30,0,"['F', 'Gd', 'Na', 'O', 'Si']",381.708666386521
54234,mp-23309,ScCl3,3.8701,"{'Cl': 6.0, 'Sc': 2.0}",8,0,"['Sc', 'Cl']",235.204384211458
54239,mp-27172,Cs3In2Cl9,3.4584,"{'Cl': 18.0, 'In': 4.0, 'Cs': 6.0}",28,0,"['Cl', 'Cs', 'In']",936.769852563331
54241,mp-27680,Ba2Ni3F10,4.8283,"{'F': 20.0, 'Ni': 6.0, 'Ba': 4.0}",30,0.002571954000006,"['Ba', 'F', 'Ni']",417.500431573963
54243,mp-28534,CaInBr3,3.1474,"{'In': 2.0, 'Ca': 2.0, 'Br': 6.0}",10,0,"['Br', 'Ca', 'In']",336.870611405693
54244,mp-28549,Li8SiO6,4.4497,"{'Li': 16.0, 'O': 12.0, 'Si': 2.0}",30,0,"['Li', 'Si', 'O']",279.14166306599
54286,mp-4138,Rb2CO3,3.2778,"{'C': 4.0, 'O': 12.0, 'Rb': 8.0}",24,0,"['Rb', 'C', 'O']",463.579982296545
54303,mp-553025,CaBiClO2,3.577,"{'Ca': 2.0, 'Cl': 2.0, 'Bi': 2.0, 'O': 4.0}",10,0,"['Bi', 'Ca', 'Cl', 'O']",205.58213158395
54306,mp-554023,Be2BO3F,6.356,"{'Be': 4.0, 'B': 2.0, 'O': 6.0, 'F': 2.0}",14,0,"['B', 'Be', 'F', 'O']",145.329081470406
54317,mp-556386,KNa3WO5,3.5937,"{'K': 2.0, 'Na': 6.0, 'W': 2.0, 'O': 10.0}",20,0.003747508250003,"['K', 'Na', 'O', 'W']",309.893157972735
54329,mp-559238,CsLi2BS3,3.0936,"{'Cs': 4.0, 'Li': 8.0, 'B': 4.0, 'S': 12.0}",28,0,"['B', 'Cs', 'Li', 'S']",664.475492853482
54330,mp-560303,BaCa2C2(O3F)2,4.7555,"{'Ba': 2.0, 'Ca': 4.0, 'C': 4.0, 'O': 12.0, 'F': 4.0}",26,0.006107636923073,"['Ba', 'C', 'Ca', 'F', 'O']",359.006768634137
54331,mp-560519,Ba3ScCO3F7,4.9085,"{'Ba': 6.0, 'Sc': 2.0, 'C': 2.0, 'O': 6.0, 'F': 14.0}",30,0,"['Ba', 'C', 'F', 'O', 'Sc']",483.612411199967
54377,mp-643749,KCaF3,6.5977,"{'K': 4.0, 'Ca': 4.0, 'F': 12.0}",20,0.0018523935,"['Ca', 'F', 'K']",346.486480556924
54384,mp-6675,Na2Zn(SiO3)2,4.0479,"{'O': 12.0, 'Na': 4.0, 'Si': 4.0, 'Zn': 2.0}",22,0,"['Na', 'O', 'Si', 'Zn']",294.82545716258
54408,mp-7323,RbBe2BO3F2,5.9598,"{'Be': 2.0, 'B': 1.0, 'O': 3.0, 'F': 2.0, 'Rb': 1.0}",9,0,"['B', 'Be', 'F', 'O', 'Rb']",118.163713975457
54492,mp-9821,RbSbF6,4.8849,"{'F': 6.0, 'Rb': 1.0, 'Sb': 1.0}",8,0,"['F', 'Rb', 'Sb']",143.026239046298
54493,mp-989578,Rb2NaInF6,5.2687,"{'Rb': 2.0, 'Na': 1.0, 'In': 1.0, 'F': 6.0}",10,0,"['Rb', 'Na', 'In', 'F']",172.652728260112
54570,mp-1104378,Sr(AlS2)2,3.8785,"{'Sr': 2.0, 'Al': 4.0, 'S': 8.0}",14,0.006571055892857,"['Al', 'S', 'Sr']",338.24902026145
54628,mp-1194870,Na4NiP2O7F2,4.2665,"{'Na': 8.0, 'Ni': 2.0, 'P': 4.0, 'O': 14.0, 'F': 4.0}",32,0,"['F', 'Na', 'Ni', 'O', 'P']",426.085894593125
54653,mp-1208846,Sr2CoSi2O7,3.1023,"{'Sr': 4.0, 'Co': 2.0, 'Si': 4.0, 'O': 14.0}",24,0,"['Co', 'O', 'Si', 'Sr']",343.670178508852
54706,mp-1228342,Ba2ScO3F,3.6754,"{'Ba': 2.0, 'Sc': 1.0, 'O': 3.0, 'F': 1.0}",7,0,"['Ba', 'F', 'O', 'Sc']",120.605759026933
54722,mp-12885,BaAl2Sb2O7,3.4259,"{'O': 7.0, 'Al': 2.0, 'Sb': 2.0, 'Ba': 1.0}",12,0,"['Al', 'Ba', 'O', 'Sb']",214.955219930674
54764,mp-3700,LiYF4,7.8271,"{'Li': 2.0, 'F': 8.0, 'Y': 2.0}",12,0,"['Li', 'Y', 'F']",149.853357861282
54849,mp-752728,Rb2S2O7,5.0594,"{'Rb': 4.0, 'S': 4.0, 'O': 14.0}",22,0.003721774318181,"['O', 'Rb', 'S']",384.472605381154
54853,mp-752913,Li2FeSiO4,3.0238,"{'Li': 4.0, 'Fe': 2.0, 'Si': 2.0, 'O': 8.0}",16,0.0053657096875,"['Fe', 'Li', 'O', 'Si']",174.862050740011
54901,mp-759605,Li2Fe(CO3)2,4.0772,"{'Li': 4.0, 'Fe': 2.0, 'C': 4.0, 'O': 12.0}",22,0,"['C', 'Fe', 'Li', 'O']",256.57075124843
54962,mp-7903,Cs2ZrF6,6.6924,"{'F': 6.0, 'Zr': 1.0, 'Cs': 2.0}",9,0,"['Cs', 'Zr', 'F']",189.501301342631
54982,mp-8723,AsF5,4.6001,"{'F': 10.0, 'As': 2.0}",12,0,"['As', 'F']",202.464799358981
54991,mp-984,BN,4.4817,"{'B': 2.0, 'N': 2.0}",4,0,"['B', 'N']",42.1325929694248
55154,mp-1190687,CsLi2Cl3,5.3273,"{'Cs': 4.0, 'Li': 8.0, 'Cl': 12.0}",24,0.001246333333334,"['Cl', 'Cs', 'Li']",648.200391065455
55269,mp-19110,BaCrP2O7,3.0724,"{'O': 14.0, 'P': 4.0, 'Cr': 2.0, 'Ba': 2.0}",22,0,"['Ba', 'Cr', 'O', 'P']",306.709045424585
55304,mp-4406,CaSO4,5.9418,"{'O': 8.0, 'S': 2.0, 'Ca': 2.0}",12,0,"['Ca', 'O', 'S']",158.522666139965
55308,mp-505492,CsNiF3,4.865,"{'Ni': 3.0, 'F': 9.0, 'Cs': 3.0}",15,0.008796379333332,"['Cs', 'F', 'Ni']",253.077024711444
55310,mp-546864,Y2C(NO)2,3.9576,"{'Y': 2.0, 'O': 2.0, 'C': 1.0, 'N': 2.0}",7,0,"['C', 'N', 'O', 'Y']",99.9217923954321
55373,mp-7456,SnF2,3.2629,"{'F': 8.0, 'Sn': 4.0}",12,0.000234474166667,"['F', 'Sn']",231.678364093522
55432,mp-780619,RbTaO3,4.153,"{'Rb': 4.0, 'Ta': 4.0, 'O': 12.0}",20,0.000361732500007,"['O', 'Rb', 'Ta']",365.632619348092
55482,mp-983061,Sr(AsO3)2,3.2452,"{'Sr': 2.0, 'As': 4.0, 'O': 12.0}",18,0,"['As', 'O', 'Sr']",232.720368908886
55626,mp-1191931,Na3CaMg3AlF14,6.8594,"{'Na': 3.0, 'Ca': 1.0, 'Mg': 3.0, 'Al': 1.0, 'F': 14.0}",22,0,"['Al', 'Ca', 'F', 'Mg', 'Na']",272.920584135189
55634,mp-1194479,Na3Y(CO3)3,5.0044,"{'Na': 6.0, 'Y': 2.0, 'C': 6.0, 'O': 18.0}",32,0,"['C', 'Na', 'O', 'Y']",392.717879154252
55674,mp-1205549,Ba2GdTaO6,3.2907,"{'Ba': 2.0, 'Gd': 1.0, 'Ta': 1.0, 'O': 6.0}",10,0,"['Ba', 'Gd', 'O', 'Ta']",158.115771834682
55677,mp-1205823,Ba2ScTaO6,3.0115,"{'Ba': 2.0, 'Sc': 1.0, 'Ta': 1.0, 'O': 6.0}",10,0,"['Ba', 'O', 'Sc', 'Ta']",143.715906546462
55689,mp-1209277,Rb3Ca2Cl7,4.8732,"{'Rb': 3.0, 'Ca': 2.0, 'Cl': 7.0}",12,0.006949522499999,"['Ca', 'Cl', 'Rb']",400.587254407943
55784,mp-19034,Mg3V2O8,3.3085,"{'O': 16.0, 'Mg': 6.0, 'V': 4.0}",26,0,"['Mg', 'O', 'V']",299.754761927748
55802,mp-27597,K2Mo2O7,3.4016,"{'O': 14.0, 'K': 4.0, 'Mo': 4.0}",22,0,"['K', 'Mo', 'O']",377.483178726593
55815,mp-31489,PNF2,5.0738,"{'N': 8.0, 'F': 16.0, 'P': 8.0}",32,0.006425623437502,"['F', 'N', 'P']",570.338223509543
56158,mp-1211375,KSr2Br5,4.2432,"{'K': 4.0, 'Sr': 8.0, 'Br': 20.0}",32,0,"['Br', 'K', 'Sr']",1087.75738368381
56160,mp-1211643,KCaCl3,5.5662,"{'K': 4.0, 'Ca': 4.0, 'Cl': 12.0}",20,0,"['Ca', 'Cl', 'K']",587.947239704763
56163,mp-1213703,Cs3Ca2Cl7,5.175,"{'Cs': 3.0, 'Ca': 2.0, 'Cl': 7.0}",12,0,"['Ca', 'Cl', 'Cs']",422.059336524458
56190,mp-1218880,Sr2Al3FeO8,3.3707,"{'Sr': 4.0, 'Al': 6.0, 'Fe': 2.0, 'O': 16.0}",28,0.007555836651791,"['Al', 'Fe', 'O', 'Sr']",407.838528214664
56221,mp-1223512,KMg3AlSi3(O5F)2,4.3103,"{'K': 1.0, 'Mg': 3.0, 'Al': 1.0, 'Si': 3.0, 'O': 10.0, 'F': 2.0}",20,0,"['Al', 'F', 'K', 'Mg', 'O', 'Si']",254.600365904526
56238,mp-1227137,Ca4TiSi4Sn3O20,3.1671,"{'Ca': 4.0, 'Ti': 1.0, 'Si': 4.0, 'Sn': 3.0, 'O': 20.0}",32,0.008437448515627,"['Ca', 'O', 'Si', 'Sn', 'Ti']",400.125747395812
56265,mp-13002,K2SiF6,7.1895,"{'F': 12.0, 'Si': 2.0, 'K': 4.0}",18,0.004923198333334,"['F', 'K', 'Si']",268.879680276466
56271,mp-17229,RbBe3ZnF9,6.2806,"{'Be': 6.0, 'F': 18.0, 'Zn': 2.0, 'Rb': 2.0}",28,0,"['Be', 'F', 'Rb', 'Zn']",391.29860024932
56277,mp-1873,ZnF2,3.48,"{'F': 4.0, 'Zn': 2.0}",6,0,"['Zn', 'F']",73.4604405821062
56289,mp-22898,KI,3.8513,"{'K': 1.0, 'I': 1.0}",2,0,"['K', 'I']",92.7432973746216
56291,mp-23317,AsBr3,3.1283,"{'As': 4.0, 'Br': 12.0}",16,0,"['As', 'Br']",691.067968525663
56314,mp-31115,Er3GaO6,3.537,"{'O': 12.0, 'Ga': 2.0, 'Er': 6.0}",20,0.007179306350002,"['Er', 'Ga', 'O']",263.23228601641
56321,mp-42190,K2NaTiOF5,3.9572,"{'F': 5.0, 'K': 2.0, 'Na': 1.0, 'O': 1.0, 'Ti': 1.0}",10,0,"['F', 'K', 'Na', 'O', 'Ti']",152.041746364833
56376,mp-6632,Ca5B3O9F,4.2356,"{'B': 3.0, 'O': 9.0, 'F': 1.0, 'Ca': 5.0}",18,0,"['B', 'Ca', 'F', 'O']",233.530439886525
56553,mp-1113047,Cs2KScBr6,3.2218,"{'Cs': 2.0, 'K': 1.0, 'Sc': 1.0, 'Br': 6.0}",10,0.009584181250002,"['Br', 'Cs', 'K', 'Sc']",397.482319452285
56716,mp-13042,NaSr3TaO6,3.8935,"{'O': 12.0, 'Na': 2.0, 'Sr': 6.0, 'Ta': 2.0}",22,0,"['Na', 'O', 'Sr', 'Ta']",330.317955389617
56764,mp-23559,In(IO3)3,3.059,"{'O': 18.0, 'In': 2.0, 'I': 6.0}",26,0.005138150384614,"['I', 'In', 'O']",422.061347937607
56803,mp-29395,NaAlI4,3.4482,"{'Na': 4.0, 'Al': 4.0, 'I': 16.0}",24,0,"['Al', 'I', 'Na']",1078.72714001218
56856,mp-555131,CsCO2,4.1445,"{'Cs': 8.0, 'C': 8.0, 'O': 16.0}",32,0,"['C', 'Cs', 'O']",653.091156699446
56865,mp-558149,BF3,8.1387,"{'B': 8.0, 'F': 24.0}",32,0,"['B', 'F']",496.316310593181
56870,mp-561353,NaZr2MnF11,4.2207,"{'F': 11.0, 'Na': 1.0, 'Mn': 1.0, 'Zr': 2.0}",15,0,"['F', 'Mn', 'Na', 'Zr']",231.696775752491
56899,mp-672273,AlBiCl6,3.7417,"{'Al': 4.0, 'Bi': 4.0, 'Cl': 24.0}",32,0,"['Al', 'Bi', 'Cl']",1014.6171816694
57009,mp-1020646,NaLi2B(PO4)2,5.8333,"{'Na': 2.0, 'Li': 4.0, 'B': 2.0, 'P': 4.0, 'O': 16.0}",28,0,"['B', 'Li', 'Na', 'O', 'P']",306.155742854315
57013,mp-1025509,ZrZnF6,6.129,"{'Zr': 1.0, 'Zn': 1.0, 'F': 6.0}",8,0,"['F', 'Zn', 'Zr']",136.585160015918
57031,mp-1079778,Sr2ZnWO6,3.5288,"{'Sr': 2.0, 'Zn': 1.0, 'W': 1.0, 'O': 6.0}",10,0.002117794399998,"['O', 'Sr', 'W', 'Zn']",130.840103637164
57053,mp-1104363,K3ScV2O8,3.097,"{'K': 3.0, 'Sc': 1.0, 'V': 2.0, 'O': 8.0}",14,0,"['K', 'O', 'Sc', 'V']",220.674255715778
57082,mp-1177332,Li4MnFe3(BO3)4,3.2416,"{'Li': 4.0, 'Mn': 1.0, 'Fe': 3.0, 'B': 4.0, 'O': 12.0}",24,0.001172173402778,"['B', 'Fe', 'Li', 'Mn', 'O']",245.375394792044
57138,mp-1205548,KSrI3,3.731,"{'K': 2.0, 'Sr': 2.0, 'I': 6.0}",10,0,"['I', 'K', 'Sr']",455.454246050964
57181,mp-1221224,Na3BrCl2,4.2312,"{'Na': 3.0, 'Br': 1.0, 'Cl': 2.0}",6,0.005486851666666,"['Br', 'Cl', 'Na']",147.791508863608
57199,mp-1228007,BaAl2O4,3.9435,"{'Ba': 2.0, 'Al': 4.0, 'O': 8.0}",14,0.004221779107143,"['Al', 'Ba', 'O']",216.08981147996
57203,mp-1238793,Cs2HfBr6,3.278,"{'Cs': 2.0, 'Hf': 1.0, 'Br': 6.0}",9,0,"['Br', 'Cs', 'Hf']",345.990257468214
57227,mp-19386,Sr3V2O8,3.6859,"{'O': 8.0, 'V': 2.0, 'Sr': 3.0}",13,0,"['O', 'Sr', 'V']",191.492368941451
57267,mp-504506,RbIn(MoO4)2,3.9721,"{'O': 8.0, 'Rb': 1.0, 'Mo': 2.0, 'In': 1.0}",12,0,"['In', 'Mo', 'O', 'Rb']",241.488337193855
57274,mp-554121,NaHf2VF11,3.1728,"{'F': 11.0, 'Na': 1.0, 'V': 1.0, 'Hf': 2.0}",15,0,"['F', 'Hf', 'Na', 'V']",223.19601031857
57280,mp-556792,LiCaCrF6,4.0946,"{'Li': 2.0, 'Ca': 2.0, 'Cr': 2.0, 'F': 12.0}",18,0,"['Ca', 'Cr', 'F', 'Li']",231.65999832956
57293,mp-560535,K4Sr(SiO3)3,4.161,"{'K': 8.0, 'Sr': 2.0, 'Si': 6.0, 'O': 18.0}",34,0.008400462941177,"['K', 'O', 'Si', 'Sr']",540.81138930487
57384,mp-753401,Sc2TiO5,3.1323,"{'Sc': 4.0, 'Ti': 2.0, 'O': 10.0}",16,0,"['O', 'Sc', 'Ti']",205.496068876302
57514,mp-1019524,Ba3P6(N4O3)2,4.531,"{'Ba': 3.0, 'P': 6.0, 'N': 8.0, 'O': 6.0}",23,0,"['Ba', 'N', 'O', 'P']",310.768156267598
57515,mp-1019547,BaLi2Mg(PO4)2,5.6396,"{'Ba': 1.0, 'Li': 2.0, 'Mg': 1.0, 'P': 2.0, 'O': 8.0}",14,0.008781362232144,"['Ba', 'Li', 'Mg', 'O', 'P']",162.112820941551
57516,mp-1019746,K2Ca4Si8O21,4.5761,"{'K': 2.0, 'Ca': 4.0, 'Si': 8.0, 'O': 21.0}",35,0,"['Ca', 'K', 'O', 'Si']",498.852016182859
57517,mp-1020633,RbMgBO3,4.3741,"{'Rb': 4.0, 'Mg': 4.0, 'B': 4.0, 'O': 12.0}",24,0,"['B', 'Mg', 'O', 'Rb']",346.281448761613
57623,mp-1196688,Te3As2O11,3.195,"{'Te': 6.0, 'As': 4.0, 'O': 22.0}",32,0,"['As', 'O', 'Te']",505.51379789932
57750,mp-23576,CsSbClF3,3.6614,"{'F': 12.0, 'Cl': 4.0, 'Sb': 4.0, 'Cs': 4.0}",24,0,"['Cl', 'Cs', 'F', 'Sb']",597.790680041564
57774,mp-5088,NaGdO2,3.1174,"{'O': 4.0, 'Na': 2.0, 'Gd': 2.0}",8,0,"['Gd', 'Na', 'O']",116.625934905311
57791,mp-556719,K2Ti(SiO3)3,3.3727,"{'K': 4.0, 'Ti': 2.0, 'Si': 6.0, 'O': 18.0}",30,0,"['K', 'O', 'Si', 'Ti']",448.331746910516
57821,mp-6633,NaCSN,4.1769,"{'C': 4.0, 'N': 4.0, 'Na': 4.0, 'S': 4.0}",16,0,"['Na', 'C', 'S', 'N']",318.639417476318
57842,mp-753449,VF5,3.1972,"{'V': 4.0, 'F': 20.0}",24,0.008826449791667,"['F', 'V']",408.165548836799
57848,mp-755967,Li4Mn3Fe(BO3)4,3.0413,"{'Li': 4.0, 'Mn': 3.0, 'Fe': 1.0, 'B': 4.0, 'O': 12.0}",24,0.003436296458333,"['B', 'Fe', 'Li', 'Mn', 'O']",250.259695081876
57880,mp-767430,Na3CdPCO7,3.1961,"{'Na': 6.0, 'Cd': 2.0, 'P': 2.0, 'C': 2.0, 'O': 14.0}",26,0,"['C', 'Cd', 'Na', 'O', 'P']",337.749135497901
57889,mp-770967,Li2MnP2O7,4.0783,"{'Li': 4.0, 'Mn': 2.0, 'P': 4.0, 'O': 14.0}",24,0.00872394510417,"['Li', 'Mn', 'O', 'P']",295.097413985279
57925,mp-8314,Cs2NaAsO4,3.5279,"{'O': 8.0, 'Na': 2.0, 'As': 2.0, 'Cs': 4.0}",16,0,"['As', 'Cs', 'Na', 'O']",326.268239519471
57927,mp-8402,RbMgF3,6.9446,"{'F': 3.0, 'Mg': 1.0, 'Rb': 1.0}",5,0.001715792333329,"['Rb', 'Mg', 'F']",70.3544012973487
57952,mp-8836,CaAlF5,7.1511,"{'F': 10.0, 'Al': 2.0, 'Ca': 2.0}",14,0,"['Al', 'Ca', 'F']",190.449910009477
57953,mp-8874,LiSiBO4,6.4208,"{'Li': 1.0, 'B': 1.0, 'O': 4.0, 'Si': 1.0}",7,0.000330143732141,"['Li', 'Si', 'B', 'O']",68.4100107147853
57971,mp-975103,RbMgPO4,4.5457,"{'Rb': 4.0, 'Mg': 4.0, 'P': 4.0, 'O': 16.0}",28,0.005984323214287,"['Mg', 'O', 'P', 'Rb']",450.615132139409
58243,mp-1213968,CaMgPO4F,5.5592,"{'Ca': 2.0, 'Mg': 2.0, 'P': 2.0, 'O': 8.0, 'F': 2.0}",16,0.002280977531251,"['Ca', 'F', 'Mg', 'O', 'P']",189.55686481885
58264,mp-1223446,KIO3,3.0235,"{'K': 1.0, 'I': 1.0, 'O': 3.0}",5,0.004061806000004,"['I', 'K', 'O']",92.3823987969886
58278,mp-1227619,Ca4Al6SO16,4.4973,"{'Ca': 4.0, 'Al': 6.0, 'S': 1.0, 'O': 16.0}",27,0.007749183981481,"['Al', 'Ca', 'O', 'S']",405.757701401836
58297,mp-13133,K2TiO3,3.4122,"{'O': 6.0, 'K': 4.0, 'Ti': 2.0}",12,0,"['K', 'O', 'Ti']",197.730548711915
58313,mp-19432,KNaV2O6,3.2404,"{'O': 12.0, 'Na': 2.0, 'K': 2.0, 'V': 4.0}",20,0,"['K', 'Na', 'O', 'V']",318.517156294591
58329,mp-27865,KMgCl3,4.4851,"{'K': 4.0, 'Mg': 4.0, 'Cl': 12.0}",20,0.00309946,"['K', 'Mg', 'Cl']",499.325305650902
58378,mp-561067,KRb2FeF6,4.0999,"{'F': 6.0, 'K': 1.0, 'Fe': 1.0, 'Rb': 2.0}",10,0,"['K', 'Rb', 'Fe', 'F']",184.073666696707
58383,mp-568584,N2,6.9556,{'N': 16.0},16,8.88178419700125E-16,['N'],330.406466779834
58462,mp-779070,Li2NiP2O7,4.3029,"{'Li': 4.0, 'Ni': 2.0, 'P': 4.0, 'O': 14.0}",24,0.005807538750002,"['Li', 'Ni', 'O', 'P']",275.366189936653
58592,mp-1192802,Cs2ZnI4,3.2389,"{'Cs': 8.0, 'Zn': 4.0, 'I': 16.0}",28,0.001924105833333,"['Cs', 'I', 'Zn']",1412.43410848183
58597,mp-1193801,Ca2AlPbF9,5.7756,"{'Ca': 4.0, 'Al': 2.0, 'Pb': 2.0, 'F': 18.0}",26,0,"['Al', 'Ca', 'F', 'Pb']",359.612798355324
58677,mp-1211745,K2RbScV2O8,3.1251,"{'K': 2.0, 'Rb': 1.0, 'Sc': 1.0, 'V': 2.0, 'O': 8.0}",14,0,"['K', 'O', 'Rb', 'Sc', 'V']",227.754669549287
58680,mp-1212449,Gd2Be2SiO7,3.3345,"{'Gd': 4.0, 'Be': 4.0, 'Si': 2.0, 'O': 14.0}",24,0,"['Be', 'Gd', 'O', 'Si']",265.375952828944
58692,mp-1214722,Ba2Fe2ClF7,3.5076,"{'Ba': 4.0, 'Fe': 4.0, 'Cl': 2.0, 'F': 14.0}",24,0.004014782916666,"['Ba', 'Cl', 'F', 'Fe']",410.28694814321
58795,mp-17631,Fe2Ni(PO4)2,3.4092,"{'O': 16.0, 'P': 4.0, 'Fe': 4.0, 'Ni': 2.0}",26,0,"['Fe', 'Ni', 'O', 'P']",306.747067378488
58832,mp-3378,SrHfO3,4.1716,"{'Sr': 4.0, 'Hf': 4.0, 'O': 12.0}",20,0,"['Sr', 'Hf', 'O']",278.641500628243
58836,mp-505743,GaBPbO4,3.298,"{'Pb': 4.0, 'Ga': 4.0, 'O': 16.0, 'B': 4.0}",28,0,"['B', 'Ga', 'O', 'Pb']",357.974070374985
58840,mp-541628,CsTeF5,4.6239,"{'Cs': 4.0, 'Te': 4.0, 'F': 20.0}",28,0,"['Cs', 'F', 'Te']",603.069138286291
58857,mp-560311,Na3FeF6,4.1281,"{'Na': 6.0, 'Fe': 2.0, 'F': 12.0}",20,0,"['F', 'Fe', 'Na']",261.675622309596
58858,mp-5652,Y2Si2O7,4.804,"{'O': 7.0, 'Si': 2.0, 'Y': 2.0}",11,0,"['Y', 'Si', 'O']",147.66830732109
59088,mp-1192489,Rb2ZnBr4,3.647,"{'Rb': 8.0, 'Zn': 4.0, 'Br': 16.0}",28,0.006733359523809,"['Br', 'Rb', 'Zn']",1082.79960430515
59151,mp-1221385,Na2BrCl,4.2059,"{'Na': 2.0, 'Br': 1.0, 'Cl': 1.0}",4,0.0058689775,"['Br', 'Cl', 'Na']",101.185180071175
59167,mp-1223396,KNbWO6,3.035,"{'K': 2.0, 'Nb': 2.0, 'W': 2.0, 'O': 12.0}",18,0,"['K', 'Nb', 'O', 'W']",292.758314566549
59207,mp-1228563,Al2Si2PbO8,4.3418,"{'Al': 4.0, 'Si': 4.0, 'Pb': 2.0, 'O': 16.0}",26,0.006449452019231,"['Al', 'O', 'Pb', 'Si']",370.146938713592
59257,mp-16972,CsErSiS4,3.0331,"{'Si': 4.0, 'S': 16.0, 'Cs': 4.0, 'Er': 4.0}",28,0,"['Cs', 'Er', 'S', 'Si']",771.268240368784
59291,mp-22930,Rb4CdCl6,3.9396,"{'Rb': 8.0, 'Cd': 2.0, 'Cl': 12.0}",22,0,"['Cd', 'Cl', 'Rb']",738.324575416292
59295,mp-23390,RbCdCl3,3.554,"{'Cl': 12.0, 'Rb': 4.0, 'Cd': 4.0}",20,0,"['Cd', 'Cl', 'Rb']",581.100201675269
59312,mp-28257,SOF2,5.2712,"{'S': 8.0, 'O': 8.0, 'F': 16.0}",32,0,"['F', 'O', 'S']",587.313011908398
59314,mp-2878,Li3PO4,5.7279,"{'Li': 12.0, 'O': 16.0, 'P': 4.0}",32,0.001089469999999,"['Li', 'O', 'P']",327.906573915449
59322,mp-30002,Sc(IO3)3,3.8334,"{'O': 18.0, 'Sc': 2.0, 'I': 6.0}",26,0,"['I', 'O', 'Sc']",414.023994080927
59328,mp-32310,Ba3Ta2NiO9,3.3708,"{'O': 9.0, 'Ni': 1.0, 'Ba': 3.0, 'Ta': 2.0}",15,0,"['Ba', 'Ni', 'O', 'Ta']",210.527871266181
59358,mp-557359,Cs2Al2Sb2O7,3.6651,"{'Cs': 2.0, 'Al': 2.0, 'Sb': 2.0, 'O': 7.0}",13,0,"['Al', 'Cs', 'O', 'Sb']",264.531096086629
59468,mp-862983,InCl3,3.0131,"{'In': 2.0, 'Cl': 6.0}",8,0,"['In', 'Cl']",276.673163173676
59499,mvc-5578,CaFeP2O7,4.2565,"{'Ca': 2.0, 'Fe': 2.0, 'P': 4.0, 'O': 14.0}",22,0,"['Ca', 'Fe', 'O', 'P']",267.134456014742
59541,mp-1095485,BaGe(PO4)2,4.167,"{'Ba': 1.0, 'Ge': 1.0, 'P': 2.0, 'O': 8.0}",12,0,"['Ba', 'Ge', 'O', 'P']",164.142712124224
59552,mp-1105697,PbCO3,3.3546,"{'Pb': 4.0, 'C': 4.0, 'O': 12.0}",20,0.002197606999999,"['C', 'O', 'Pb']",283.008262166537
59723,mp-19031,RbVO3,3.0556,"{'O': 12.0, 'V': 4.0, 'Rb': 4.0}",20,0,"['O', 'Rb', 'V']",372.385984333074
59746,mp-28022,Na6CdCl8,4.0214,"{'Na': 6.0, 'Cl': 8.0, 'Cd': 1.0}",15,0,"['Cd', 'Cl', 'Na']",369.754986548997
59762,mp-4693,RbAlF4,6.9452,"{'F': 16.0, 'Al': 4.0, 'Rb': 4.0}",24,0.00038623425,"['Al', 'F', 'Rb']",347.883851277038
59797,mp-555052,MnSb2F12,3.3306,"{'F': 12.0, 'Mn': 1.0, 'Sb': 2.0}",15,0,"['F', 'Mn', 'Sb']",236.839354378795
59802,mp-556645,RbNbAsClO5,3.1166,"{'Rb': 2.0, 'Nb': 2.0, 'As': 2.0, 'Cl': 2.0, 'O': 10.0}",18,0,"['As', 'Cl', 'Nb', 'O', 'Rb']",362.986534811841
59805,mp-557375,NaLiCO3,4.4576,"{'Na': 3.0, 'Li': 3.0, 'C': 3.0, 'O': 9.0}",18,0.00014758425926,"['C', 'Li', 'Na', 'O']",203.960276526147
59812,mp-559617,HfB2O5,4.4123,"{'Hf': 4.0, 'B': 8.0, 'O': 20.0}",32,0,"['B', 'Hf', 'O']",276.767701803414
59895,mp-6943,Ca4GdB3O10,3.2757,"{'B': 3.0, 'O': 10.0, 'Ca': 4.0, 'Gd': 1.0}",18,0,"['B', 'Ca', 'Gd', 'O']",231.682875008977
60183,mp-1219605,RbAlSi3O8,4.8954,"{'Rb': 2.0, 'Al': 2.0, 'Si': 6.0, 'O': 16.0}",26,0,"['Al', 'O', 'Rb', 'Si']",388.963810107203
60257,mp-27342,Ge5F12,4.3666,"{'F': 24.0, 'Ge': 10.0}",34,0,"['F', 'Ge']",560.185760468239
60290,mp-557584,K4Ba(GeO3)3,3.2302,"{'K': 8.0, 'Ba': 2.0, 'Ge': 6.0, 'O': 18.0}",34,0,"['Ba', 'Ge', 'K', 'O']",615.803779081961
60291,mp-557837,SiO2,5.7667,"{'Si': 4.0, 'O': 8.0}",12,0.006045204166666,"['Si', 'O']",179.502759796154
60293,mp-558582,In(PO3)3,4.3722,"{'In': 2.0, 'P': 6.0, 'O': 18.0}",26,0.003901360512821,"['In', 'O', 'P']",361.464919871567
60296,mp-559982,Na2AlZnF7,4.8226,"{'Na': 4.0, 'Al': 2.0, 'Zn': 2.0, 'F': 14.0}",22,0.003321420909091,"['Al', 'F', 'Na', 'Zn']",276.893103778055
60300,mp-561063,BaFe2P2O7F2,3.9304,"{'Ba': 2.0, 'Fe': 4.0, 'P': 4.0, 'O': 14.0, 'F': 4.0}",28,0,"['Ba', 'F', 'Fe', 'O', 'P']",389.79190474423
60301,mp-561177,Gd3BWO9,3.1839,"{'Gd': 6.0, 'B': 2.0, 'W': 2.0, 'O': 18.0}",28,0,"['B', 'Gd', 'O', 'W']",356.479096433979
60302,mp-561778,CsLiCrO4,3.0587,"{'Cs': 4.0, 'Li': 4.0, 'Cr': 4.0, 'O': 16.0}",28,0,"['Cr', 'Cs', 'Li', 'O']",519.015780913778
60362,mp-753721,GdOF,3.3035,"{'Gd': 2.0, 'O': 2.0, 'F': 2.0}",6,0,"['Gd', 'O', 'F']",85.0720282844102
60493,mp-998591,LiSnCl3,3.414,"{'Li': 2.0, 'Sn': 2.0, 'Cl': 6.0}",10,0.007635206,"['Cl', 'Li', 'Sn']",259.743730083907
60587,mp-1096925,CsBaI3,3.6246,"{'Cs': 4.0, 'Ba': 4.0, 'I': 12.0}",20,0,"['Ba', 'Cs', 'I']",1068.62273961566
60698,mp-1213226,CsPO3,5.1529,"{'Cs': 4.0, 'P': 4.0, 'O': 12.0}",20,0.008750184999999,"['Cs', 'O', 'P']",391.371833400368
60817,mp-542085,Sr2GeO4,3.5302,"{'Sr': 8.0, 'Ge': 4.0, 'O': 16.0}",28,0.00122217142857,"['Ge', 'O', 'Sr']",432.691987994255
60826,mp-556888,KSbF6,4.9126,"{'K': 2.0, 'Sb': 2.0, 'F': 12.0}",16,0,"['F', 'K', 'Sb']",285.08423185827
60828,mp-557632,K2LiBO3,3.6234,"{'K': 4.0, 'Li': 2.0, 'B': 2.0, 'O': 6.0}",14,0,"['B', 'K', 'Li', 'O']",198.336190595921
60831,mp-5588,BaSiF6,7.3825,"{'F': 6.0, 'Si': 1.0, 'Ba': 1.0}",8,0,"['Ba', 'F', 'Si']",110.246810894302
60877,mp-7535,Li5AlO4,4.7971,"{'Li': 10.0, 'O': 8.0, 'Al': 2.0}",20,0.003383798750001,"['Al', 'Li', 'O']",192.723312895192