,task_id,pretty_formula,band_gap,unit_cell_formula,nsites,e_above_hull,elements,volume
117982,mp-9138,RbPO3,4.7607,"{'O': 12.0, 'P': 4.0, 'Rb': 4.0}",20,0.004971276,"['O', 'P', 'Rb']",373.786731293962
118135,mp-1219568,RbCNO,4.5713,"{'Rb': 2.0, 'C': 2.0, 'N': 2.0, 'O': 2.0}",8,0,"['C', 'N', 'O', 'Rb']",154.194612297341
118180,mp-13630,Rb3NaBe2F8,6.6192,"{'Be': 2.0, 'F': 8.0, 'Na': 1.0, 'Rb': 3.0}",14,0,"['Be', 'F', 'Na', 'Rb']",224.736883688509
118228,mp-27581,Pb7(ClF6)2,4.2092,"{'Pb': 7.0, 'Cl': 2.0, 'F': 12.0}",21,0,"['Cl', 'F', 'Pb']",380.987326523152
118329,mp-7048,Al2O3,4.4571,"{'O': 6.0, 'Al': 4.0}",10,0.009480607,"['Al', 'O']",96.4748366199184
118332,mp-7079,CaZrSi2O7,4.5596,"{'O': 7.0, 'Si': 2.0, 'Ca': 1.0, 'Zr': 1.0}",11,0.003412041818178,"['Ca', 'Zr', 'Si', 'O']",141.338727979853
118360,mp-755898,Er3TaO7,3.4152,"{'Er': 6.0, 'Ta': 2.0, 'O': 14.0}",22,0.006179952272728,"['Er', 'O', 'Ta']",291.963122286161
118374,mp-7572,MgSO4,5.4889,"{'O': 8.0, 'Mg': 2.0, 'S': 2.0}",12,0,"['Mg', 'S', 'O']",138.23079304945
118414,mp-769077,Mg2Te3O8,3.4781,"{'Mg': 4.0, 'Te': 6.0, 'O': 16.0}",26,0,"['Mg', 'O', 'Te']",394.737918163629
118680,mp-1185576,CsYbI3,3.8129,"{'Cs': 4.0, 'Yb': 4.0, 'I': 12.0}",20,0,"['Cs', 'I', 'Yb']",933.597483352461
118737,mp-1214050,Ca4ErB3O10,4.4257,"{'Ca': 4.0, 'Er': 1.0, 'B': 3.0, 'O': 10.0}",18,0,"['B', 'Ca', 'Er', 'O']",227.645460975379
118810,mp-28202,K3NO4,3.6478,"{'K': 12.0, 'N': 4.0, 'O': 16.0}",32,0,"['K', 'N', 'O']",514.094520679781
118816,mp-29509,Zn(AsO2)2,3.5232,"{'As': 8.0, 'Zn': 4.0, 'O': 16.0}",28,0.006444749880955,"['As', 'O', 'Zn']",433.021970566911
118865,mp-644325,CsFeSiO4,3.0863,"{'Cs': 4.0, 'Fe': 4.0, 'Si': 4.0, 'O': 16.0}",28,0,"['Cs', 'Fe', 'O', 'Si']",511.142174963222
118868,mp-6509,Sr3GaO4F,3.6802,"{'O': 8.0, 'F': 2.0, 'Ga': 2.0, 'Sr': 6.0}",18,0,"['F', 'Ga', 'O', 'Sr']",269.7370166858
118897,mp-755129,Li2MnFe(BO3)2,3.0258,"{'Li': 4.0, 'Mn': 2.0, 'Fe': 2.0, 'B': 4.0, 'O': 12.0}",24,0.005214814722219,"['B', 'Fe', 'Li', 'Mn', 'O']",251.20422408646
118988,mp-989639,Cs2KInF6,5.4629,"{'Cs': 2.0, 'K': 1.0, 'In': 1.0, 'F': 6.0}",10,0,"['Cs', 'F', 'In', 'K']",211.157467815204
119063,mp-1111239,K2NaBiCl6,3.7427,"{'K': 2.0, 'Na': 1.0, 'Bi': 1.0, 'Cl': 6.0}",10,0,"['Bi', 'Cl', 'K', 'Na']",323.540531991559
119075,mp-1111261,K2LiBiCl6,3.6182,"{'K': 2.0, 'Li': 1.0, 'Bi': 1.0, 'Cl': 6.0}",10,0,"['Bi', 'Cl', 'K', 'Li']",293.54351776002
119189,mp-1111988,Cs2NaScCl6,3.9065,"{'Cs': 2.0, 'Na': 1.0, 'Sc': 1.0, 'Cl': 6.0}",10,0,"['Cl', 'Cs', 'Na', 'Sc']",303.260223463367
119243,mp-1112447,K2ScAgF6,3.0265,"{'K': 2.0, 'Sc': 1.0, 'Ag': 1.0, 'F': 6.0}",10,0,"['Ag', 'F', 'K', 'Sc']",176.385950380784
119289,mp-1112613,Cs2LiErCl6,5.1941,"{'Cs': 2.0, 'Li': 1.0, 'Er': 1.0, 'Cl': 6.0}",10,0,"['Cl', 'Cs', 'Er', 'Li']",296.762530107317
119302,mp-1112666,Cs2LiYBr6,4.0508,"{'Cs': 2.0, 'Li': 1.0, 'Y': 1.0, 'Br': 6.0}",10,0,"['Br', 'Cs', 'Li', 'Y']",352.686987332294
119317,mp-1112934,Cs2YAgBr6,3.1522,"{'Cs': 2.0, 'Y': 1.0, 'Ag': 1.0, 'Br': 6.0}",10,0.004584677625,"['Ag', 'Br', 'Cs', 'Y']",370.907904691372
119342,mp-1113022,Cs2LiBiF6,4.8946,"{'Cs': 2.0, 'Li': 1.0, 'Bi': 1.0, 'F': 6.0}",10,0,"['Bi', 'Cs', 'F', 'Li']",187.41703178257
119343,mp-1113024,Cs2LiBiCl6,3.6075,"{'Cs': 2.0, 'Li': 1.0, 'Bi': 1.0, 'Cl': 6.0}",10,0.008369086249996,"['Bi', 'Cl', 'Cs', 'Li']",311.053022473243
119344,mp-1113028,Cs2KYBr6,4.2852,"{'Cs': 2.0, 'K': 1.0, 'Y': 1.0, 'Br': 6.0}",10,0,"['Br', 'Cs', 'K', 'Y']",425.504270191192
119375,mp-1113338,Rb2ScAgCl6,3.2586,"{'Rb': 2.0, 'Sc': 1.0, 'Ag': 1.0, 'Cl': 6.0}",10,0,"['Ag', 'Cl', 'Rb', 'Sc']",287.756858560225
119421,mp-1113425,Cs2YAgF6,3.3391,"{'Cs': 2.0, 'Y': 1.0, 'Ag': 1.0, 'F': 6.0}",10,0,"['Ag', 'Cs', 'F', 'Y']",208.319103086568
119426,mp-1113432,Cs2YAgCl6,3.7098,"{'Cs': 2.0, 'Y': 1.0, 'Ag': 1.0, 'Cl': 6.0}",10,0,"['Ag', 'Cl', 'Cs', 'Y']",320.934383421551
119436,mp-1113448,Cs2ScAgF6,3.6445,"{'Cs': 2.0, 'Sc': 1.0, 'Ag': 1.0, 'F': 6.0}",10,0,"['Ag', 'Cs', 'F', 'Sc']",191.079034643651
119454,mp-1113492,Cs3YF6,5.8341,"{'Cs': 3.0, 'Y': 1.0, 'F': 6.0}",10,0,"['Cs', 'F', 'Y']",256.243948946581
119462,mp-1113508,Cs3GaF6,5.855,"{'Cs': 3.0, 'Ga': 1.0, 'F': 6.0}",10,0,"['Cs', 'F', 'Ga']",218.610268201184
119466,mp-1113517,Cs2KAsF6,4.6539,"{'Cs': 2.0, 'K': 1.0, 'As': 1.0, 'F': 6.0}",10,0,"['As', 'Cs', 'F', 'K']",208.385403540832
119467,mp-1113518,Cs2ScInF6,4.1661,"{'Cs': 2.0, 'Sc': 1.0, 'In': 1.0, 'F': 6.0}",10,0,"['Cs', 'F', 'In', 'Sc']",212.960990074269
119478,mp-1113556,Rb2YAgBr6,3.1227,"{'Rb': 2.0, 'Y': 1.0, 'Ag': 1.0, 'Br': 6.0}",10,0.008481480999997,"['Ag', 'Br', 'Rb', 'Y']",363.026818161525
119505,mp-1113625,Rb2ScAgF6,3.2753,"{'Rb': 2.0, 'Sc': 1.0, 'Ag': 1.0, 'F': 6.0}",10,0,"['Ag', 'F', 'Rb', 'Sc']",181.402894339166
119528,mp-1113700,Rb2YAgCl6,3.6074,"{'Rb': 2.0, 'Y': 1.0, 'Ag': 1.0, 'Cl': 6.0}",10,0.0063558815,"['Ag', 'Cl', 'Rb', 'Y']",312.586382608656
119542,mp-1113725,Rb2ErAgCl6,3.5262,"{'Rb': 2.0, 'Er': 1.0, 'Ag': 1.0, 'Cl': 6.0}",10,0.001539233950001,"['Ag', 'Cl', 'Er', 'Rb']",309.196237146939
119570,mp-1113857,Rb2AlAgF6,3.243,"{'Rb': 2.0, 'Al': 1.0, 'Ag': 1.0, 'F': 6.0}",10,0,"['Ag', 'Al', 'F', 'Rb']",161.929266524948
119654,mp-1114347,KRb2AlF6,6.4263,"{'K': 1.0, 'Rb': 2.0, 'Al': 1.0, 'F': 6.0}",10,0,"['Al', 'F', 'K', 'Rb']",172.208471882996
119660,mp-1114362,Rb2NaAsCl6,3.08,"{'Rb': 2.0, 'Na': 1.0, 'As': 1.0, 'Cl': 6.0}",10,0,"['As', 'Cl', 'Na', 'Rb']",294.436757115054
119667,mp-1114374,Rb3GaF6,5.683,"{'Rb': 3.0, 'Ga': 1.0, 'F': 6.0}",10,0,"['F', 'Ga', 'Rb']",194.164253470943
119673,mp-1114381,Rb3YF6,5.7504,"{'Rb': 3.0, 'Y': 1.0, 'F': 6.0}",10,0,"['F', 'Rb', 'Y']",230.202112217319
119678,mp-1114386,Rb2AlInF6,4.2037,"{'Rb': 2.0, 'Al': 1.0, 'In': 1.0, 'F': 6.0}",10,0.004302500766667,"['Al', 'F', 'In', 'Rb']",181.744311886055
119686,mp-1114394,Rb2ScInF6,3.8434,"{'Rb': 2.0, 'Sc': 1.0, 'In': 1.0, 'F': 6.0}",10,0.00505146200926,"['F', 'In', 'Rb', 'Sc']",203.091749319582
119699,mp-1114410,KRb2ScCl6,4.022,"{'K': 1.0, 'Rb': 2.0, 'Sc': 1.0, 'Cl': 6.0}",10,0,"['Cl', 'K', 'Rb', 'Sc']",330.832116012448
119702,mp-1114416,Rb2LiBiF6,4.9741,"{'Rb': 2.0, 'Li': 1.0, 'Bi': 1.0, 'F': 6.0}",10,0,"['Bi', 'F', 'Li', 'Rb']",173.479082076189
119705,mp-1114419,Rb2LiInF6,5.2622,"{'Rb': 2.0, 'Li': 1.0, 'In': 1.0, 'F': 6.0}",10,0,"['F', 'In', 'Li', 'Rb']",157.306358689644
119714,mp-1114429,Rb2LiScCl6,3.7539,"{'Rb': 2.0, 'Li': 1.0, 'Sc': 1.0, 'Cl': 6.0}",10,0,"['Cl', 'Li', 'Rb', 'Sc']",267.8347805979
119717,mp-1114432,Rb2LiYF6,6.8909,"{'Rb': 2.0, 'Li': 1.0, 'Y': 1.0, 'F': 6.0}",10,0,"['F', 'Li', 'Rb', 'Y']",165.379205908614
119721,mp-1114439,Rb2NaErCl6,5.0204,"{'Rb': 2.0, 'Na': 1.0, 'Er': 1.0, 'Cl': 6.0}",10,0,"['Cl', 'Er', 'Na', 'Rb']",310.944215200415
119733,mp-1114456,Rb2NaScF6,6.908,"{'Rb': 2.0, 'Na': 1.0, 'Sc': 1.0, 'F': 6.0}",10,0,"['F', 'Na', 'Rb', 'Sc']",167.426750519451
119757,mp-1114490,Rb3AlF6,6.1217,"{'Rb': 3.0, 'Al': 1.0, 'F': 6.0}",10,0,"['Al', 'F', 'Rb']",184.006195699341
119760,mp-1114494,Rb3BiF6,4.4685,"{'Rb': 3.0, 'Bi': 1.0, 'F': 6.0}",10,0,"['Bi', 'F', 'Rb']",241.792587740232
119762,mp-1114496,Rb3FeF6,4.0641,"{'Rb': 3.0, 'Fe': 1.0, 'F': 6.0}",10,0,"['F', 'Fe', 'Rb']",198.60405159061
119822,mp-1114562,Rb2LiBiCl6,3.6154,"{'Rb': 2.0, 'Li': 1.0, 'Bi': 1.0, 'Cl': 6.0}",10,0,"['Bi', 'Cl', 'Li', 'Rb']",300.131772239319
119826,mp-1114566,Rb2LiErCl6,5.2115,"{'Rb': 2.0, 'Li': 1.0, 'Er': 1.0, 'Cl': 6.0}",10,0,"['Cl', 'Er', 'Li', 'Rb']",284.747926171743
119835,mp-1114576,Rb2LiSbF6,4.2054,"{'Rb': 2.0, 'Li': 1.0, 'Sb': 1.0, 'F': 6.0}",10,0,"['F', 'Li', 'Rb', 'Sb']",167.866572863381
119841,mp-1114582,Rb2LiYBr6,4.042,"{'Rb': 2.0, 'Li': 1.0, 'Y': 1.0, 'Br': 6.0}",10,0,"['Br', 'Li', 'Rb', 'Y']",341.973555235879
119842,mp-1114583,Rb2LiYCl6,4.9273,"{'Rb': 2.0, 'Li': 1.0, 'Y': 1.0, 'Cl': 6.0}",10,0.003601485999999,"['Cl', 'Li', 'Rb', 'Y']",287.784781977805
119860,mp-1114601,Rb2NaYBr6,4.1097,"{'Rb': 2.0, 'Na': 1.0, 'Y': 1.0, 'Br': 6.0}",10,0,"['Br', 'Na', 'Rb', 'Y']",372.090518328916
119861,mp-1114602,Rb2NaYCl6,5.0105,"{'Rb': 2.0, 'Na': 1.0, 'Y': 1.0, 'Cl': 6.0}",10,0,"['Cl', 'Na', 'Rb', 'Y']",315.101059383959
119877,mp-1114619,Rb3BiCl6,3.9744,"{'Rb': 3.0, 'Bi': 1.0, 'Cl': 6.0}",10,0,"['Bi', 'Cl', 'Rb']",395.852726576433
119883,mp-1114625,Rb3InCl6,3.5957,"{'Rb': 3.0, 'In': 1.0, 'Cl': 6.0}",10,0,"['Cl', 'In', 'Rb']",360.124354138737
119896,mp-1114640,KRb2AsF6,4.5568,"{'K': 1.0, 'Rb': 2.0, 'As': 1.0, 'F': 6.0}",10,0,"['As', 'F', 'K', 'Rb']",197.39464582866
119913,mp-1114662,Rb2NaScBr6,3.0969,"{'Rb': 2.0, 'Na': 1.0, 'Sc': 1.0, 'Br': 6.0}",10,0.007239451999999,"['Br', 'Na', 'Rb', 'Sc']",347.135118953354
119916,mp-1114665,Rb3ScCl6,4.0651,"{'Rb': 3.0, 'Sc': 1.0, 'Cl': 6.0}",10,0,"['Cl', 'Rb', 'Sc']",351.420060227738
119920,mp-1114671,Rb2NaScCl6,3.906,"{'Rb': 2.0, 'Na': 1.0, 'Sc': 1.0, 'Cl': 6.0}",10,0,"['Cl', 'Na', 'Rb', 'Sc']",291.249513529218
119922,mp-1114677,Rb3SbF6,3.7794,"{'Rb': 3.0, 'Sb': 1.0, 'F': 6.0}",10,0.006378186375001,"['F', 'Rb', 'Sb']",231.588645649468
119930,mp-1114687,Rb3AsF6,4.2314,"{'Rb': 3.0, 'As': 1.0, 'F': 6.0}",10,0,"['As', 'F', 'Rb']",211.872492322634
119932,mp-1114689,Rb3InF6,5.1246,"{'Rb': 3.0, 'In': 1.0, 'F': 6.0}",10,0,"['F', 'In', 'Rb']",215.761562708896
119939,mp-1114698,Rb2LiAsF6,4.5851,"{'Rb': 2.0, 'Li': 1.0, 'As': 1.0, 'F': 6.0}",10,0,"['As', 'F', 'Li', 'Rb']",154.911258715642
119942,mp-1114702,Rb2LiScF6,6.7042,"{'Rb': 2.0, 'Li': 1.0, 'Sc': 1.0, 'F': 6.0}",10,0,"['F', 'Li', 'Rb', 'Sc']",151.752831778605
119946,mp-1114712,Rb3CrF6,4.1671,"{'Rb': 3.0, 'Cr': 1.0, 'F': 6.0}",10,0,"['Cr', 'F', 'Rb']",195.154327801229
119987,mp-1173671,Na3PO4,3.9124,"{'Na': 6.0, 'P': 2.0, 'O': 8.0}",16,0,"['Na', 'O', 'P']",224.828949423388
120124,mp-1179709,RbIn3F10,3.4229,"{'Rb': 2.0, 'In': 6.0, 'F': 20.0}",28,0.001926174553571,"['F', 'In', 'Rb']",462.272432069499
120203,mp-1180816,KIO3,3.043,"{'K': 4.0, 'I': 4.0, 'O': 12.0}",20,0.007336358500004,"['I', 'K', 'O']",373.602864945412
120665,mp-1205574,Cs2KScF6,6.8181,"{'Cs': 2.0, 'K': 1.0, 'Sc': 1.0, 'F': 6.0}",10,0,"['Cs', 'F', 'K', 'Sc']",203.052568088098
120760,mp-1239492,CaVBiO5,3.154,"{'Ca': 4.0, 'V': 4.0, 'Bi': 4.0, 'O': 20.0}",32,0.009088172499999,"['Bi', 'Ca', 'O', 'V']",541.786514681206
121301,mp-849226,LiFeF4,3.4418,"{'Li': 4.0, 'Fe': 4.0, 'F': 16.0}",24,0.004912638333341,"['F', 'Fe', 'Li']",274.563169800805
121582,mp-865412,CsBa2Cr2F11,3.4985,"{'Cs': 1.0, 'Ba': 2.0, 'Cr': 2.0, 'F': 11.0}",16,0,"['Ba', 'Cr', 'Cs', 'F']",290.668504382217
121603,mp-867261,RbSrCO3F,4.1259,"{'Rb': 1.0, 'Sr': 1.0, 'C': 1.0, 'O': 3.0, 'F': 1.0}",7,0,"['C', 'F', 'O', 'Rb', 'Sr']",121.719916590963
121631,mp-867531,LiFe(Si2O5)2,3.34,"{'Li': 2.0, 'Fe': 2.0, 'Si': 8.0, 'O': 20.0}",32,0.009232932031257,"['Fe', 'Li', 'O', 'Si']",460.026200716973
121803,mp-867757,RbCaCO3F,4.2981,"{'Rb': 3.0, 'Ca': 3.0, 'C': 3.0, 'O': 9.0, 'F': 3.0}",21,0,"['C', 'Ca', 'F', 'O', 'Rb']",335.072530658875
121833,mp-867891,ErCl3,3.7739,"{'Er': 2.0, 'Cl': 6.0}",8,0,"['Er', 'Cl']",291.717516286302
122443,mvc-14582,WF4,3.444,"{'W': 2.0, 'F': 8.0}",10,0.003818889666666,"['F', 'W']",164.862620082521
122449,mvc-14678,MgTiF6,4.6182,"{'Mg': 1.0, 'Ti': 1.0, 'F': 6.0}",8,0,"['F', 'Mg', 'Ti']",108.648655137591
122483,mvc-15683,MgSnF6,5.037,"{'Mg': 1.0, 'Sn': 1.0, 'F': 6.0}",8,0,"['Mg', 'Sn', 'F']",116.876776197605
122484,mvc-15684,TiZnF6,4.2525,"{'Ti': 1.0, 'Zn': 1.0, 'F': 6.0}",8,0,"['F', 'Ti', 'Zn']",112.256344190714
122837,mvc-2649,Mg2Ta2MnO8,3.2695,"{'Mg': 4.0, 'Ta': 4.0, 'Mn': 2.0, 'O': 16.0}",26,0.003379320833339,"['Mg', 'Mn', 'O', 'Ta']",307.859930014562
122842,mvc-2664,Mg2Ta2FeO8,3.0709,"{'Mg': 4.0, 'Ta': 4.0, 'Fe': 2.0, 'O': 16.0}",26,0.007103525384622,"['Fe', 'Mg', 'O', 'Ta']",302.550463873655
122935,mvc-2996,SrMgNi(PO4)2,3.9838,"{'Sr': 2.0, 'Mg': 2.0, 'Ni': 2.0, 'P': 4.0, 'O': 16.0}",26,0.009663256282046,"['Mg', 'Ni', 'O', 'P', 'Sr']",315.423592071909
123049,mvc-3299,CaCrF4,3.5894,"{'Ca': 2.0, 'Cr': 2.0, 'F': 8.0}",12,0,"['Ca', 'Cr', 'F']",162.702412916461
123109,mvc-418,Mg2Nb2NiO8,3.2356,"{'Mg': 4.0, 'Nb': 4.0, 'Ni': 2.0, 'O': 16.0}",26,0,"['Mg', 'Nb', 'Ni', 'O']",295.538863971618
123498,mvc-6726,CaSnP2O7,3.637,"{'Ca': 2.0, 'Sn': 2.0, 'P': 4.0, 'O': 14.0}",22,0.006767567159096,"['Ca', 'O', 'P', 'Sn']",299.91178468139
123573,mvc-6952,MgMnP2O7,3.7303,"{'Mg': 2.0, 'Mn': 2.0, 'P': 4.0, 'O': 14.0}",22,0.003754169318185,"['Mg', 'Mn', 'O', 'P']",255.054675472003
123576,mvc-6955,MgNiP2O7,3.5018,"{'Mg': 2.0, 'Ni': 2.0, 'P': 4.0, 'O': 14.0}",22,0.003385478522726,"['Mg', 'Ni', 'O', 'P']",246.489623662283
123580,mvc-6961,MgFeP2O7,4.0826,"{'Mg': 2.0, 'Fe': 2.0, 'P': 4.0, 'O': 14.0}",22,0.000483267954545,"['Fe', 'Mg', 'O', 'P']",253.566602176958
123584,mvc-6967,MgCrP2O7,3.0396,"{'Mg': 2.0, 'Cr': 2.0, 'P': 4.0, 'O': 14.0}",22,0,"['Cr', 'Mg', 'O', 'P']",254.482858434077