,task_id,pretty_formula,band_gap,unit_cell_formula,nsites,e_above_hull,elements,volume
110248,mp-29993,TaAgF6,3.555,"{'F': 12.0, 'Ag': 2.0, 'Ta': 2.0}",16,0,"['Ag', 'F', 'Ta']",254.315664629883
110251,mp-3032,RbBF4,7.7372,"{'B': 4.0, 'F': 16.0, 'Rb': 4.0}",24,0,"['Rb', 'B', 'F']",392.976424774876
110252,mp-3042,K2SiF6,7.2224,"{'F': 6.0, 'Si': 1.0, 'K': 2.0}",9,0,"['K', 'Si', 'F']",140.356016676283
110262,mp-3963,K2CO3,3.6392,"{'C': 4.0, 'O': 12.0, 'K': 8.0}",24,0,"['K', 'C', 'O']",401.053818711196
110274,mp-554015,CsK(ClO4)2,5.5176,"{'Cs': 1.0, 'K': 1.0, 'Cl': 2.0, 'O': 8.0}",12,0,"['Cl', 'Cs', 'K', 'O']",222.196128327534
110454,mp-8678,NaAlPO4F,5.4295,"{'O': 8.0, 'F': 2.0, 'Na': 2.0, 'Al': 2.0, 'P': 2.0}",16,0.001641498958334,"['Al', 'F', 'Na', 'O', 'P']",170.500921189493
110455,mp-8870,LiMgAsO4,3.4544,"{'Li': 4.0, 'O': 16.0, 'Mg': 4.0, 'As': 4.0}",28,0.001432788333333,"['As', 'Li', 'Mg', 'O']",316.643795733139
110805,mp-19324,Ca2MgWO6,3.7321,"{'O': 12.0, 'Mg': 2.0, 'Ca': 4.0, 'W': 2.0}",20,0,"['Ca', 'Mg', 'O', 'W']",241.311485170056
110846,mp-5476,Cs4Mg3F10,6.2813,"{'F': 20.0, 'Mg': 6.0, 'Cs': 8.0}",34,0,"['Cs', 'F', 'Mg']",639.615307701168
110899,mp-675569,KPF6,7.1235,"{'K': 1.0, 'P': 1.0, 'F': 6.0}",8,0.003855959999999,"['F', 'K', 'P']",122.260030800902
110906,mp-685150,PbF2,4.3738,"{'Pb': 2.0, 'F': 4.0}",6,0.003106196666666,"['F', 'Pb']",108.915254190975
110971,mp-8491,LiInP2O7,3.9665,"{'Li': 2.0, 'O': 14.0, 'P': 4.0, 'In': 2.0}",22,0,"['In', 'Li', 'O', 'P']",290.418744878071
111084,mp-1191513,Na3Sc(BO3)2,3.6325,"{'Na': 6.0, 'Sc': 2.0, 'B': 4.0, 'O': 12.0}",24,0,"['B', 'Na', 'O', 'Sc']",274.617935176987
111154,mp-1209350,Rb3YV2O8,3.3689,"{'Rb': 3.0, 'Y': 1.0, 'V': 2.0, 'O': 8.0}",14,0,"['O', 'Rb', 'V', 'Y']",255.968433914121
111256,mp-1228622,Al9Cr(BO9)2,3.7598,"{'Al': 9.0, 'Cr': 1.0, 'B': 2.0, 'O': 18.0}",30,0.002683103499979,"['Al', 'B', 'Cr', 'O']",343.296354801291
111290,mp-19893,PbCO3,3.3293,"{'C': 4.0, 'O': 12.0, 'Pb': 4.0}",20,0,"['Pb', 'C', 'O']",282.989593807719
111324,mp-30927,CsAs4F13,5.2808,"{'F': 13.0, 'As': 4.0, 'Cs': 1.0}",18,0,"['As', 'Cs', 'F']",328.416447093409
111349,mp-554669,Ba3Ta2CdO9,3.4922,"{'Ba': 3.0, 'Ta': 2.0, 'Cd': 1.0, 'O': 9.0}",15,0,"['Ba', 'Cd', 'O', 'Ta']",225.956833683989
111352,mp-556129,Cs2Zr(IO3)6,3.4495,"{'Cs': 2.0, 'Zr': 1.0, 'I': 6.0, 'O': 18.0}",27,0,"['Cs', 'I', 'O', 'Zr']",507.917885818083
111392,mp-7074,NaSc(SiO3)2,4.9356,"{'O': 12.0, 'Na': 2.0, 'Si': 4.0, 'Sc': 2.0}",20,0,"['Na', 'O', 'Sc', 'Si']",236.48799529827
111647,mp-1211332,KZn(PO3)3,4.4863,"{'K': 2.0, 'Zn': 2.0, 'P': 6.0, 'O': 18.0}",28,0,"['K', 'O', 'P', 'Zn']",388.13262937873
111739,mp-14364,Cs2LiAsO4,3.7302,"{'Li': 2.0, 'O': 8.0, 'As': 2.0, 'Cs': 4.0}",16,0,"['As', 'Cs', 'Li', 'O']",317.592133377028
111756,mp-18216,BaCa2(SiO3)3,4.572,"{'O': 18.0, 'Si': 6.0, 'Ca': 4.0, 'Ba': 2.0}",30,0.005543877333332,"['Ba', 'Ca', 'O', 'Si']",413.935803868445
111814,mp-27193,RbIO3,3.1835,"{'O': 3.0, 'Rb': 1.0, 'I': 1.0}",5,0,"['I', 'O', 'Rb']",99.0715870102578
111824,mp-28237,RbLiBr2,4.322,"{'Li': 2.0, 'Br': 4.0, 'Rb': 2.0}",8,0.00481235375,"['Br', 'Li', 'Rb']",264.116688723085
111883,mp-558546,KSO3,4.9933,"{'K': 6.0, 'S': 6.0, 'O': 18.0}",30,0.000725899605072,"['K', 'O', 'S']",578.949548156157
111890,mp-560647,Ca2GeO4,3.6002,"{'Ca': 8.0, 'Ge': 4.0, 'O': 16.0}",28,0,"['Ca', 'Ge', 'O']",417.528889031086
112060,mp-1102977,GaAsO4,3.0696,"{'Ga': 2.0, 'As': 2.0, 'O': 8.0}",12,0.004670840555556,"['As', 'Ga', 'O']",185.914507926984
112110,mp-1192819,MgFeSiO4,3.0467,"{'Mg': 4.0, 'Fe': 4.0, 'Si': 4.0, 'O': 16.0}",28,0,"['Fe', 'Mg', 'O', 'Si']",312.660580931038
112150,mp-1211627,K3NaBe2F8,6.7376,"{'K': 3.0, 'Na': 1.0, 'Be': 2.0, 'F': 8.0}",14,0,"['Be', 'F', 'K', 'Na']",205.469486650213
112217,mp-18987,LiMoP2O7,4.0469,"{'Li': 2.0, 'O': 14.0, 'P': 4.0, 'Mo': 2.0}",22,0,"['Li', 'Mo', 'O', 'P']",291.021767641905
112228,mp-22091,NaZr2CoF11,3.2761,"{'F': 11.0, 'Na': 1.0, 'Co': 1.0, 'Zr': 2.0}",15,0,"['Co', 'F', 'Na', 'Zr']",223.971383146273
112238,mp-27260,CsAlCl4,5.388,"{'Al': 4.0, 'Cl': 16.0, 'Cs': 4.0}",24,0,"['Al', 'Cl', 'Cs']",845.424149842157
112251,mp-4006,ErPO4,5.9196,"{'O': 8.0, 'P': 2.0, 'Er': 2.0}",12,0,"['Er', 'P', 'O']",143.772249875755
112286,mp-554084,BaBi6(PO5)4,3.4171,"{'Ba': 1.0, 'Bi': 6.0, 'P': 4.0, 'O': 20.0}",31,0,"['Ba', 'Bi', 'O', 'P']",452.164768411292
112287,mp-554507,Na2AlNiF7,5.2255,"{'Na': 4.0, 'Al': 2.0, 'Ni': 2.0, 'F': 14.0}",22,0,"['Al', 'F', 'Na', 'Ni']",269.402569918482
112335,mp-571222,CsBr,4.2579,"{'Cs': 1.0, 'Br': 1.0}",2,0,"['Cs', 'Br']",101.392190845281
112359,mp-644103,CaSiSnO5,3.4619,"{'Ca': 2.0, 'Si': 2.0, 'Sn': 2.0, 'O': 10.0}",16,0.008897531874999,"['Ca', 'O', 'Si', 'Sn']",202.967027327649
112452,mp-778364,Na6Ti2O7,3.4152,"{'Na': 12.0, 'Ti': 4.0, 'O': 14.0}",30,0.004382173666667,"['Na', 'Ti', 'O']",444.450473380261
112458,mp-7999,Y2Si2O7,4.9322,"{'O': 14.0, 'Si': 4.0, 'Y': 4.0}",22,0.002520639090909,"['O', 'Si', 'Y']",292.461613540191
112466,mp-861906,BaNa2Mg(PO4)2,5.044,"{'Ba': 1.0, 'Na': 2.0, 'Mg': 1.0, 'P': 2.0, 'O': 8.0}",14,0,"['Ba', 'Mg', 'Na', 'O', 'P']",176.062587446638
112616,mp-1191673,Na2BSO4F3,5.7577,"{'Na': 4.0, 'B': 2.0, 'S': 2.0, 'O': 8.0, 'F': 6.0}",22,0,"['B', 'F', 'Na', 'O', 'S']",276.368725027384
112731,mp-18449,K2ZrO3,3.6641,"{'O': 12.0, 'K': 8.0, 'Zr': 4.0}",24,0,"['K', 'O', 'Zr']",446.66851442526
112736,mp-18964,K3NaCr2O8,3.0493,"{'O': 16.0, 'Na': 2.0, 'K': 6.0, 'Cr': 4.0}",28,0,"['Cr', 'K', 'Na', 'O']",469.420103119735
112790,mp-546125,ScAsO4,3.5219,"{'O': 8.0, 'Sc': 2.0, 'As': 2.0}",12,0,"['Sc', 'As', 'O']",144.117207216082
112802,mp-557754,ZrP2O7,4.0937,"{'Zr': 2.0, 'P': 4.0, 'O': 14.0}",20,0.000453584000001,"['O', 'P', 'Zr']",322.483944680334
112920,mp-769466,Y2Ge2O7,3.8964,"{'Y': 2.0, 'Ge': 2.0, 'O': 7.0}",11,0.004920568181818,"['Ge', 'O', 'Y']",159.896712542079
112938,mp-776264,LiFeF4,3.2364,"{'Li': 2.0, 'Fe': 2.0, 'F': 8.0}",12,0.002175013333342,"['Li', 'Fe', 'F']",164.040780904888
112971,mp-865934,YbF2,6.7345,"{'Yb': 2.0, 'F': 4.0}",6,0,"['Yb', 'F']",92.9356178709557
113103,mp-1112687,Cs2KYI6,3.2816,"{'Cs': 2.0, 'K': 1.0, 'Y': 1.0, 'I': 6.0}",10,0.002923857499999,"['Cs', 'I', 'K', 'Y']",526.891693284759
113180,mp-1210835,Li2BeCl4,6.2879,"{'Li': 8.0, 'Be': 4.0, 'Cl': 16.0}",28,0.008575360714286,"['Be', 'Cl', 'Li']",545.703612274952
113204,mp-1219582,RbAlNiF6,5.1369,"{'Rb': 2.0, 'Al': 2.0, 'Ni': 2.0, 'F': 12.0}",18,0,"['Al', 'F', 'Ni', 'Rb']",259.073187525922
113250,mp-13948,Cs2HfF6,7.2288,"{'F': 6.0, 'Cs': 2.0, 'Hf': 1.0}",9,0,"['Cs', 'Hf', 'F']",187.042897060356
113251,mp-15395,CsBePO4,5.1938,"{'Be': 4.0, 'O': 16.0, 'P': 4.0, 'Cs': 4.0}",28,0,"['Be', 'Cs', 'O', 'P']",411.256064336251
113280,mp-27221,Ca2Hf7O16,4.3144,"{'O': 16.0, 'Ca': 2.0, 'Hf': 7.0}",25,0.0018948595,"['Ca', 'Hf', 'O']",309.168864300006
113281,mp-27377,K4Zr5O12,3.1866,"{'O': 12.0, 'K': 4.0, 'Zr': 5.0}",21,0,"['K', 'O', 'Zr']",319.887674826636
113295,mp-31033,HfF4,5.3947,"{'F': 24.0, 'Hf': 6.0}",30,0,"['F', 'Hf']",368.049617863876
113301,mp-3503,Li6WN4,3.059,"{'Li': 12.0, 'N': 8.0, 'W': 2.0}",22,0,"['Li', 'W', 'N']",222.733540450098
113302,mp-3536,MgAl2O4,5.1111,"{'O': 8.0, 'Mg': 2.0, 'Al': 4.0}",14,0,"['Mg', 'Al', 'O']",136.371331569439
113305,mp-3980,LiSbF6,4.8624,"{'Li': 1.0, 'F': 6.0, 'Sb': 1.0}",8,0,"['F', 'Li', 'Sb']",113.055819585523
113316,mp-554573,SiO2,5.6155,"{'Si': 4.0, 'O': 8.0}",12,0.001279896666667,"['Si', 'O']",189.231533613813
113322,mp-556046,SrGa2B2O7,3.9764,"{'Sr': 2.0, 'Ga': 4.0, 'B': 4.0, 'O': 14.0}",24,0,"['B', 'Ga', 'O', 'Sr']",290.058883497002
113328,mp-558861,KI(OF)2,4.1476,"{'K': 4.0, 'I': 4.0, 'O': 8.0, 'F': 8.0}",24,0,"['F', 'I', 'K', 'O']",446.785019583893
113353,mp-6668,LiTiPO5,3.0594,"{'Li': 4.0, 'O': 20.0, 'P': 4.0, 'Ti': 4.0}",32,0,"['Li', 'Ti', 'P', 'O']",354.459082231282
113384,mp-756968,K3CaPCO7,4.313,"{'K': 6.0, 'Ca': 2.0, 'P': 2.0, 'C': 2.0, 'O': 14.0}",26,0,"['C', 'Ca', 'K', 'O', 'P']",415.431119716209
113395,mp-759230,NaAl11O17,4.4027,"{'Na': 1.0, 'Al': 11.0, 'O': 17.0}",29,0.003313814827586,"['Al', 'Na', 'O']",313.558927590396
113787,mp-23268,NaI,3.5255,"{'Na': 1.0, 'I': 1.0}",2,0,"['Na', 'I']",69.675096116179
113806,mp-28315,Rb4CdBr6,3.1975,"{'Rb': 8.0, 'Cd': 2.0, 'Br': 12.0}",22,0,"['Br', 'Cd', 'Rb']",848.265320036047
113821,mp-3666,LiTaO3,3.7004,"{'Li': 2.0, 'O': 6.0, 'Ta': 2.0}",10,0,"['Li', 'Ta', 'O']",109.133343735602
113843,mp-554591,K2Ca2(CO3)3,4.7367,"{'K': 4.0, 'Ca': 4.0, 'C': 6.0, 'O': 18.0}",32,0.009933679375002,"['C', 'Ca', 'K', 'O']",440.225426950313
113846,mp-556324,NiF2,4.8138,"{'Ni': 2.0, 'F': 4.0}",6,0.000845585,"['F', 'Ni']",68.691284491789
113860,mp-568662,BaCl2,5.4379,"{'Ba': 1.0, 'Cl': 2.0}",3,0,"['Ba', 'Cl']",101.874633485865
113902,mp-7457,SnF2,3.2522,"{'F': 8.0, 'Sn': 4.0}",12,0,"['Sn', 'F']",232.288353304467
113959,mp-7914,NaScO2,3.99,"{'O': 2.0, 'Na': 1.0, 'Sc': 1.0}",4,0,"['Na', 'Sc', 'O']",48.1260436513173
113976,mp-9710,Sr2Si5N8,3.2012,"{'N': 16.0, 'Si': 10.0, 'Sr': 4.0}",30,0,"['N', 'Si', 'Sr']",372.041193651335
113984,mp-9755,HfGeO4,4.1244,"{'O': 8.0, 'Ge': 2.0, 'Hf': 2.0}",12,0,"['Hf', 'Ge', 'O']",126.614877044568
114147,mp-1211274,KY(CO3)2,4.2169,"{'K': 2.0, 'Y': 2.0, 'C': 4.0, 'O': 12.0}",20,0,"['C', 'K', 'O', 'Y']",268.71469426507
114149,mp-1211648,KCaBr3,4.5945,"{'K': 4.0, 'Ca': 4.0, 'Br': 12.0}",20,0.000805428,"['Br', 'Ca', 'K']",699.752425312396
114237,mp-1223613,KAlSi3O8,4.7842,"{'K': 2.0, 'Al': 2.0, 'Si': 6.0, 'O': 16.0}",26,0.006519579999997,"['Al', 'K', 'O', 'Si']",378.040822634529
114290,mp-16801,GdSO4F,3.1781,"{'O': 16.0, 'F': 4.0, 'S': 4.0, 'Gd': 4.0}",28,0,"['F', 'Gd', 'O', 'S']",393.350690303039
114309,mp-23209,SrCl2,5.2286,"{'Cl': 2.0, 'Sr': 1.0}",3,0,"['Sr', 'Cl']",87.4972664963893
114322,mp-29966,NOF,3.1443,"{'N': 4.0, 'O': 4.0, 'F': 4.0}",12,0,"['F', 'N', 'O']",198.56913969923
114323,mp-30086,GeCl4,4.1254,"{'Cl': 16.0, 'Ge': 4.0}",20,0,"['Cl', 'Ge']",774.175058117268
114333,mp-4555,Ca(AsO3)2,3.2956,"{'O': 6.0, 'Ca': 1.0, 'As': 2.0}",9,0,"['As', 'Ca', 'O']",108.015805156102
114381,mp-574086,SiBr4,4.1056,"{'Si': 4.0, 'Br': 16.0}",20,6.27845000003014E-05,"['Br', 'Si']",915.252344538824
114420,mp-756382,Sr3WO6,3.5954,"{'Sr': 6.0, 'W': 2.0, 'O': 12.0}",20,0,"['O', 'Sr', 'W']",332.039039429275
114519,mp-10510,BaAlBO3F2,6.0443,"{'B': 2.0, 'O': 6.0, 'F': 4.0, 'Al': 2.0, 'Ba': 2.0}",16,7.74474999989394E-05,"['Al', 'B', 'Ba', 'F', 'O']",203.293247570484
114540,mp-10814,SrLiBO3,4.37,"{'Li': 4.0, 'B': 4.0, 'O': 12.0, 'Sr': 4.0}",24,0,"['B', 'Li', 'O', 'Sr']",293.09113598926
114582,mp-1188220,SiO2,5.4486,"{'Si': 6.0, 'O': 12.0}",18,0.007564532777778,"['O', 'Si']",363.477822508357
114771,mp-23657,Na6S2ClO8F,4.783,"{'O': 8.0, 'F': 1.0, 'Na': 6.0, 'S': 2.0, 'Cl': 1.0}",18,0,"['Cl', 'F', 'Na', 'O', 'S']",265.035756341127
114789,mp-27241,K2SbCl5,3.2523,"{'Cl': 20.0, 'K': 8.0, 'Sb': 4.0}",32,0,"['Cl', 'K', 'Sb']",995.647308829413
114796,mp-28021,Sr5(Br4Cl)2,4.4452,"{'Cl': 4.0, 'Br': 16.0, 'Sr': 10.0}",30,0.005056213999999,"['Br', 'Cl', 'Sr']",963.435890048507
114833,mp-5013,Cs2BeF4,6.8801,"{'Be': 4.0, 'F': 16.0, 'Cs': 8.0}",28,0,"['Be', 'Cs', 'F']",566.297219430837
114857,mp-562403,CsAsOF4,3.8615,"{'Cs': 4.0, 'As': 4.0, 'O': 4.0, 'F': 16.0}",28,0,"['As', 'Cs', 'F', 'O']",506.519585308886
114928,mp-7611,Li2CaGeO4,4.1135,"{'Li': 2.0, 'O': 4.0, 'Ca': 1.0, 'Ge': 1.0}",8,0,"['Ca', 'Ge', 'Li', 'O']",90.9001869219064
114960,mp-8059,SiO2,5.5887,"{'O': 16.0, 'Si': 8.0}",24,0.004768701666666,"['Si', 'O']",379.489010390833
115066,mp-1106183,LiAlS2,4.1016,"{'Li': 4.0, 'Al': 4.0, 'S': 8.0}",16,0,"['Al', 'Li', 'S']",324.980845381097
115116,mp-1192933,CsAlSiO4,4.4332,"{'Cs': 4.0, 'Al': 4.0, 'Si': 4.0, 'O': 16.0}",28,0.000476347142858,"['Al', 'Cs', 'O', 'Si']",482.581531292698
115159,mp-1213335,CsY(WO4)2,3.3854,"{'Cs': 2.0, 'Y': 2.0, 'W': 4.0, 'O': 16.0}",24,0,"['Cs', 'O', 'W', 'Y']",343.883879130567
115187,mp-1223450,KSrB(PO4)2,5.2819,"{'K': 2.0, 'Sr': 2.0, 'B': 2.0, 'P': 4.0, 'O': 16.0}",26,0,"['B', 'K', 'O', 'P', 'Sr']",369.902517999811
115284,mp-555119,SrTaF7,5.4929,"{'Sr': 2.0, 'Ta': 2.0, 'F': 14.0}",18,0,"['F', 'Sr', 'Ta']",248.053925862747
115291,mp-556233,KAs4ClO6,3.0576,"{'K': 1.0, 'As': 4.0, 'Cl': 1.0, 'O': 6.0}",12,0,"['As', 'Cl', 'K', 'O']",225.799512664136
115296,mp-557878,KNi(PO3)3,4.9542,"{'K': 1.0, 'Ni': 1.0, 'P': 3.0, 'O': 9.0}",14,0,"['K', 'Ni', 'O', 'P']",212.683409396968
115299,mp-559518,Li2FeSiO4,3.1298,"{'Li': 8.0, 'Fe': 4.0, 'Si': 4.0, 'O': 16.0}",32,0.0011345346875,"['Fe', 'Li', 'O', 'Si']",350.466055637622
115323,mp-571266,GaCl3,4.2434,"{'Ga': 2.0, 'Cl': 6.0}",8,0.00123763375,"['Cl', 'Ga']",285.157620237915
115472,mp-8291,BaTiF6,4.3189,"{'F': 6.0, 'Ti': 1.0, 'Ba': 1.0}",8,0,"['Ba', 'Ti', 'F']",120.544978920781
115701,mp-1228067,Ba2ZrSnO6,3.6849,"{'Ba': 2.0, 'Zr': 1.0, 'Sn': 1.0, 'O': 6.0}",10,0,"['Ba', 'O', 'Sn', 'Zr']",150.105906175985
115728,mp-14395,NaAlAsO4F,3.4604,"{'O': 8.0, 'F': 2.0, 'Na': 2.0, 'Al': 2.0, 'As': 2.0}",16,0,"['Al', 'As', 'F', 'Na', 'O']",185.482479652368
115731,mp-17612,Ba2SiO4,4.6289,"{'Ba': 8.0, 'Si': 4.0, 'O': 16.0}",28,0,"['Ba', 'O', 'Si']",465.022092909545
115732,mp-17664,LiNi2P3O10,3.9702,"{'Li': 2.0, 'O': 20.0, 'P': 6.0, 'Ni': 4.0}",32,0,"['Li', 'Ni', 'O', 'P']",349.752952061582
115743,mp-23156,He,17.7667,{'He': 2.0},2,0.00246874,['He'],28.7741611824101
115744,mp-23535,K2ZnBr4,3.6745,"{'K': 4.0, 'Zn': 2.0, 'Br': 8.0}",14,0,"['Br', 'K', 'Zn']",500.288443159776
115789,mp-559571,ZrB2O5,3.7797,"{'Zr': 4.0, 'B': 8.0, 'O': 20.0}",32,0,"['B', 'O', 'Zr']",283.140994902251
115793,mp-562072,Cs3SbO3,3.1046,"{'Cs': 12.0, 'Sb': 4.0, 'O': 12.0}",28,0,"['Cs', 'O', 'Sb']",819.755366575504
115823,mp-6524,CaMg3(CO3)4,4.8291,"{'C': 4.0, 'O': 12.0, 'Mg': 3.0, 'Ca': 1.0}",20,0.003671674,"['C', 'Ca', 'Mg', 'O']",210.914954906764
115928,mp-780583,Li2MnFe(BO3)2,3.073,"{'Li': 4.0, 'Mn': 2.0, 'Fe': 2.0, 'B': 4.0, 'O': 12.0}",24,0.005070859305552,"['B', 'Fe', 'Li', 'Mn', 'O']",252.640200174536
115932,mp-7959,KErO2,3.961,"{'O': 2.0, 'K': 1.0, 'Er': 1.0}",4,0,"['K', 'Er', 'O']",64.2926809241677
116108,mp-1112970,Cs3InF6,5.1532,"{'Cs': 3.0, 'In': 1.0, 'F': 6.0}",10,0,"['Cs', 'F', 'In']",241.888797420618
116311,mp-23291,PbCl2,3.7951,"{'Cl': 8.0, 'Pb': 4.0}",12,0.005818033333334,"['Pb', 'Cl']",333.73527244767
116330,mp-505784,CsAl(MoO4)2,3.8773,"{'Cs': 1.0, 'Al': 1.0, 'Mo': 2.0, 'O': 8.0}",12,0,"['Al', 'Cs', 'Mo', 'O']",228.511921267944
116331,mp-5189,AlAsO4,3.8667,"{'O': 12.0, 'Al': 3.0, 'As': 3.0}",18,0.004723263333333,"['Al', 'As', 'O']",262.254025538356
116362,mp-561664,TeF4,4.0193,"{'Te': 4.0, 'F': 16.0}",20,0,"['Te', 'F']",341.150076459468
116380,mp-6253,KLiBeF4,6.8529,"{'Li': 2.0, 'Be': 2.0, 'F': 8.0, 'K': 2.0}",14,0,"['Be', 'F', 'K', 'Li']",200.028048340664
116385,mp-645709,SnSO4,4.1741,"{'Sn': 4.0, 'S': 4.0, 'O': 16.0}",24,0.00402356125,"['O', 'S', 'Sn']",363.052450670385
116442,mp-765621,VF5,3.0717,"{'V': 4.0, 'F': 20.0}",24,0.006354152708334,"['F', 'V']",378.250442831213
116544,mp-1097916,CsCaCl3,5.3337,"{'Cs': 1.0, 'Ca': 1.0, 'Cl': 3.0}",5,0,"['Ca', 'Cl', 'Cs']",163.544508989118
116619,mp-1190699,CO2,6.5071,"{'C': 8.0, 'O': 16.0}",24,0.007415532500001,"['C', 'O']",381.95668398979
116632,mp-1193627,NaCaBe2B2O6F,5.0966,"{'Na': 2.0, 'Ca': 2.0, 'Be': 4.0, 'B': 4.0, 'O': 12.0, 'F': 2.0}",26,0.003754904711542,"['B', 'Be', 'Ca', 'F', 'Na', 'O']",272.3534172492
116695,mp-1209273,Rb3GeF7,4.3466,"{'Rb': 6.0, 'Ge': 2.0, 'F': 14.0}",22,0.003661695909092,"['F', 'Ge', 'Rb']",408.708419679438
116701,mp-1210155,NaAlBr4,4.149,"{'Na': 4.0, 'Al': 4.0, 'Br': 16.0}",24,0,"['Al', 'Br', 'Na']",845.084976334232
116750,mp-1218454,SrCa3Hf4O12,4.4348,"{'Sr': 1.0, 'Ca': 3.0, 'Hf': 4.0, 'O': 12.0}",20,0.007307184124999,"['Ca', 'Hf', 'O', 'Sr']",264.420294258218
116776,mp-12240,Na2LiBe2F7,6.9506,"{'Li': 2.0, 'Be': 4.0, 'F': 14.0, 'Na': 4.0}",24,0,"['Be', 'F', 'Li', 'Na']",290.201342365163
116822,mp-1602,SiS2,3.0711,"{'Si': 2.0, 'S': 4.0}",6,0,"['Si', 'S']",189.621004558655
116857,mp-28559,Na6Be8O11,3.616,"{'Be': 8.0, 'O': 11.0, 'Na': 6.0}",25,0,"['Be', 'Na', 'O']",266.85163906999
116876,mp-541629,BaGaF5,5.7568,"{'Ba': 4.0, 'Ga': 4.0, 'F': 20.0}",28,0,"['Ba', 'F', 'Ga']",416.093970115196
116891,mp-561486,Na2Mg5(PO4)4,4.9369,"{'Na': 2.0, 'Mg': 5.0, 'P': 4.0, 'O': 16.0}",27,0.003273994444446,"['Mg', 'Na', 'O', 'P']",313.556328657233
116937,mp-755800,Li2MnFe(BO3)2,3.0617,"{'Li': 4.0, 'Mn': 2.0, 'Fe': 2.0, 'B': 4.0, 'O': 12.0}",24,0.005051011388886,"['B', 'Fe', 'Li', 'Mn', 'O']",252.942308281884
116950,mp-759726,Li2MnSiO4,3.0758,"{'Li': 8.0, 'Mn': 4.0, 'Si': 4.0, 'O': 16.0}",32,7.52312500011953E-05,"['Li', 'Mn', 'O', 'Si']",354.746756420421
117273,mp-18959,Y2Be2Fe(SiO5)2,3.9215,"{'Be': 4.0, 'O': 20.0, 'Si': 4.0, 'Fe': 2.0, 'Y': 4.0}",34,0,"['Be', 'Fe', 'O', 'Si', 'Y']",364.348432967226
117301,mp-22916,NaBr,4.0899,"{'Na': 1.0, 'Br': 1.0}",2,0,"['Na', 'Br']",54.7485188170198
117344,mp-556472,LiYF4,7.8165,"{'Li': 2.0, 'Y': 2.0, 'F': 8.0}",12,0.000627862499998,"['F', 'Li', 'Y']",149.70668896827
117350,mp-558085,KNaGeO3,3.0314,"{'K': 4.0, 'Na': 4.0, 'Ge': 4.0, 'O': 12.0}",24,0,"['Ge', 'K', 'Na', 'O']",367.681809515194
117361,mp-561166,Na2ZrGe2O7,3.6856,"{'Na': 4.0, 'Zr': 2.0, 'Ge': 4.0, 'O': 14.0}",24,0,"['Ge', 'Na', 'O', 'Zr']",336.339793879581
117384,mp-6327,LiAlSiO4,4.7989,"{'Li': 3.0, 'O': 12.0, 'Al': 3.0, 'Si': 3.0}",21,0.007650873809524,"['Al', 'Li', 'O', 'Si']",278.254112197112
117599,mp-1192906,Ba4Ta2O9,3.8882,"{'Ba': 8.0, 'Ta': 4.0, 'O': 18.0}",30,0,"['Ba', 'O', 'Ta']",551.135426965656
117631,mp-1206098,ZrMnF6,4.4382,"{'Zr': 1.0, 'Mn': 1.0, 'F': 6.0}",8,0,"['F', 'Mn', 'Zr']",146.422409271606
117704,mp-14437,RbYO2,3.6289,"{'O': 2.0, 'Rb': 1.0, 'Y': 1.0}",4,0,"['O', 'Rb', 'Y']",70.4639718639154
117707,mp-14726,Na4TiO4,3.3159,"{'O': 8.0, 'Na': 8.0, 'Ti': 2.0}",18,0,"['Na', 'O', 'Ti']",261.479107598039
117721,mp-18977,Ba2CaWO6,3.18,"{'O': 6.0, 'Ca': 1.0, 'Ba': 2.0, 'W': 1.0}",10,0.003010321999999,"['Ba', 'Ca', 'O', 'W']",154.859842334981
117734,mp-22964,PbClF,3.4959,"{'F': 2.0, 'Cl': 2.0, 'Pb': 2.0}",6,0,"['Pb', 'Cl', 'F']",126.730856224241
117753,mp-27564,Na4B2O5,3.6846,"{'B': 4.0, 'O': 10.0, 'Na': 8.0}",22,0,"['B', 'Na', 'O']",259.387113899587
117793,mp-5104,CaZnF4,5.1275,"{'F': 8.0, 'Ca': 2.0, 'Zn': 2.0}",12,0.004434444166667,"['Ca', 'Zn', 'F']",160.686684368127
117796,mp-540905,YAlGeO5,3.811,"{'Y': 4.0, 'Ge': 4.0, 'Al': 4.0, 'O': 20.0}",32,0,"['Al', 'Ge', 'O', 'Y']",350.061162043687
117808,mp-554346,KSr4(BO3)3,4.173,"{'K': 2.0, 'Sr': 8.0, 'B': 6.0, 'O': 18.0}",34,0,"['B', 'K', 'O', 'Sr']",470.594973066915
117809,mp-554382,K2CdP2O7,3.7754,"{'K': 4.0, 'Cd': 2.0, 'P': 4.0, 'O': 14.0}",24,0,"['Cd', 'K', 'O', 'P']",348.275670125943
117814,mp-555512,RbCO2,4.244,"{'Rb': 8.0, 'C': 8.0, 'O': 16.0}",32,0,"['C', 'O', 'Rb']",570.684904287484
117821,mp-556850,BaMnF4,3.2831,"{'F': 8.0, 'Mn': 2.0, 'Ba': 2.0}",12,0.0035628525,"['Ba', 'F', 'Mn']",201.692257550693
117824,mp-557650,Sr3P6(N4O3)2,4.4971,"{'Sr': 3.0, 'P': 6.0, 'N': 8.0, 'O': 6.0}",23,0,"['N', 'O', 'P', 'Sr']",287.206851691309
117871,mp-628726,Sr(AlCl4)2,5.2875,"{'Sr': 2.0, 'Al': 4.0, 'Cl': 16.0}",22,0.008493777954545,"['Al', 'Cl', 'Sr']",678.023059892469
117881,mp-642655,K2GdF5,4.5119,"{'K': 8.0, 'Gd': 4.0, 'F': 20.0}",32,0,"['F', 'Gd', 'K']",549.509498273775
117884,mp-647813,Cs2CrO4,3.2422,"{'Cs': 8.0, 'Cr': 4.0, 'O': 16.0}",28,0,"['Cr', 'Cs', 'O']",628.387876155488
117886,mp-6504,BaMg(CO3)2,4.0897,"{'C': 2.0, 'O': 6.0, 'Mg': 1.0, 'Ba': 1.0}",10,0.005200740500001,"['Ba', 'Mg', 'C', 'O']",126.807518778356
117887,mp-650715,Gd2Be2GeO7,3.2557,"{'Gd': 4.0, 'Be': 4.0, 'Ge': 2.0, 'O': 14.0}",24,0,"['Be', 'Gd', 'Ge', 'O']",275.093979946178
117920,mp-753668,Ba2GdSbO6,3.484,"{'Ba': 2.0, 'Gd': 1.0, 'Sb': 1.0, 'O': 6.0}",10,0,"['Ba', 'Gd', 'O', 'Sb']",157.910540818875
117926,mp-755476,K3FePCO7,3.7392,"{'K': 6.0, 'Fe': 2.0, 'P': 2.0, 'C': 2.0, 'O': 14.0}",26,0.006742085096152,"['C', 'Fe', 'K', 'O', 'P']",379.404741824294
117970,mp-8127,K2Mg(CO3)2,4.0486,"{'C': 2.0, 'O': 6.0, 'Mg': 1.0, 'K': 2.0}",11,0,"['C', 'K', 'Mg', 'O']",139.475497652565