,task_id,pretty_formula,band_gap,unit_cell_formula,nsites,e_above_hull,elements,volume
103265,mp-1223752,K5BrCl4,4.5243,"{'K': 5.0, 'Br': 1.0, 'Cl': 4.0}",10,0.002957361,"['Br', 'Cl', 'K']",337.049392578053
103311,mp-17975,KSrPO4,5.089,"{'O': 16.0, 'P': 4.0, 'K': 4.0, 'Sr': 4.0}",28,0,"['K', 'O', 'P', 'Sr']",409.558611778444
103331,mp-28477,Sr(ClO3)2,5.2513,"{'Sr': 2.0, 'Cl': 4.0, 'O': 12.0}",18,0,"['Cl', 'O', 'Sr']",284.373014389823
103332,mp-28830,Na2ZnBr4,3.9249,"{'Na': 8.0, 'Zn': 4.0, 'Br': 16.0}",28,0,"['Br', 'Na', 'Zn']",882.801766137158
103334,mp-29525,Rb3BiO3,3.1118,"{'O': 12.0, 'Rb': 12.0, 'Bi': 4.0}",28,0,"['Bi', 'O', 'Rb']",722.072478838615
103354,mp-553883,Ba3WCl2O5,3.9379,"{'Ba': 6.0, 'W': 2.0, 'Cl': 4.0, 'O': 10.0}",22,0,"['Ba', 'Cl', 'O', 'W']",486.332770980449
103364,mp-560008,PNF2,5.609,"{'P': 2.0, 'N': 2.0, 'F': 4.0}",8,0,"['F', 'N', 'P']",125.517123503804
103365,mp-560478,BaY2Si3O10,4.8154,"{'Ba': 2.0, 'Y': 4.0, 'Si': 6.0, 'O': 20.0}",32,0,"['Ba', 'O', 'Si', 'Y']",450.178248399332
103369,mp-561491,KNaMg2Si4(O5F)2,5.2115,"{'K': 1.0, 'Na': 1.0, 'Mg': 2.0, 'Si': 4.0, 'O': 10.0, 'F': 2.0}",20,0,"['F', 'K', 'Mg', 'Na', 'O', 'Si']",250.90607531389
103486,mp-9784,BaBAsO5,3.4465,"{'B': 3.0, 'O': 15.0, 'As': 3.0, 'Ba': 3.0}",24,0,"['As', 'B', 'Ba', 'O']",345.234095908038
103487,mp-989400,Rb2NaGaF6,5.9026,"{'Rb': 2.0, 'Na': 1.0, 'Ga': 1.0, 'F': 6.0}",10,0,"['F', 'Ga', 'Na', 'Rb']",156.242201040699
103611,mp-1191101,KMgBO3,4.3848,"{'K': 4.0, 'Mg': 4.0, 'B': 4.0, 'O': 12.0}",24,0,"['B', 'K', 'Mg', 'O']",329.717532451564
103629,mp-1197749,BaGd2Si3O10,3.3414,"{'Ba': 2.0, 'Gd': 4.0, 'Si': 6.0, 'O': 20.0}",32,0,"['Ba', 'Gd', 'O', 'Si']",455.504026647666
103708,mp-1221077,NaCaMgCr(SiO3)4,3.1835,"{'Na': 1.0, 'Ca': 1.0, 'Mg': 1.0, 'Cr': 1.0, 'Si': 4.0, 'O': 12.0}",20,0,"['Ca', 'Cr', 'Mg', 'Na', 'O', 'Si']",223.229277077522
103725,mp-1223554,KAlNiF6,5.152,"{'K': 2.0, 'Al': 2.0, 'Ni': 2.0, 'F': 12.0}",18,0,"['Al', 'F', 'K', 'Ni']",255.163559079474
103754,mp-1228115,Ba3SrCa2(WO6)2,3.2881,"{'Ba': 3.0, 'Sr': 1.0, 'Ca': 2.0, 'W': 2.0, 'O': 12.0}",20,0.007406548999999,"['Ba', 'Ca', 'O', 'Sr', 'W']",305.857914787871
103770,mp-12427,Sr2TaGaO6,4.0422,"{'O': 6.0, 'Ga': 1.0, 'Sr': 2.0, 'Ta': 1.0}",10,0,"['Sr', 'Ta', 'Ga', 'O']",126.671895160788
103829,mp-2955,NaMgF3,6.7529,"{'F': 12.0, 'Na': 4.0, 'Mg': 4.0}",20,0,"['Na', 'Mg', 'F']",234.872998400093
103901,mp-696736,RbBe2F5,7.0819,"{'Rb': 1.0, 'Be': 2.0, 'F': 5.0}",8,0,"['Be', 'F', 'Rb']",120.834036370656
103970,mp-862701,CsCaCO3F,4.5158,"{'Cs': 3.0, 'Ca': 3.0, 'C': 3.0, 'O': 9.0, 'F': 3.0}",21,0,"['C', 'Ca', 'Cs', 'F', 'O']",351.584667167219
103974,mp-866298,BaNaScSi2O7,4.6606,"{'Ba': 2.0, 'Na': 2.0, 'Sc': 2.0, 'Si': 4.0, 'O': 14.0}",24,0.005204623645843,"['Ba', 'Na', 'Sc', 'Si', 'O']",327.864249863794
104179,mp-1227808,Ca3Er3Ge2BO13,3.6256,"{'Ca': 3.0, 'Er': 3.0, 'Ge': 2.0, 'B': 1.0, 'O': 13.0}",22,0.003866772954543,"['B', 'Ca', 'Er', 'Ge', 'O']",286.845507494857
104180,mp-1228160,Ba3P4O13,5.121,"{'Ba': 3.0, 'P': 4.0, 'O': 13.0}",20,0.002117026125003,"['Ba', 'O', 'P']",318.077419831757
104218,mp-18914,K2MoO4,4.3173,"{'O': 8.0, 'K': 4.0, 'Mo': 2.0}",14,0,"['K', 'Mo', 'O']",269.968463285569
104237,mp-23392,K4CdCl6,3.9837,"{'Cl': 12.0, 'K': 8.0, 'Cd': 2.0}",22,0,"['Cd', 'Cl', 'K']",664.466748517212
104267,mp-29992,AsPbF7,4.0768,"{'F': 14.0, 'As': 2.0, 'Pb': 2.0}",18,0,"['As', 'F', 'Pb']",250.899731947651
104268,mp-30031,CaI2,3.9035,"{'Ca': 1.0, 'I': 2.0}",3,0,"['Ca', 'I']",144.15763706929
104289,mp-42022,Cs2RbZrOF5,4.7018,"{'Cs': 2.0, 'F': 5.0, 'O': 1.0, 'Rb': 1.0, 'Zr': 1.0}",10,0.007388931250002,"['Cs', 'Rb', 'Zr', 'O', 'F']",225.062635580734
104304,mp-5403,Rb2TiO3,3.8602,"{'O': 12.0, 'Ti': 4.0, 'Rb': 8.0}",24,0,"['O', 'Rb', 'Ti']",499.919351009793
104335,mp-557070,Ca2BiAsO6,3.2412,"{'Ca': 4.0, 'Bi': 2.0, 'As': 2.0, 'O': 12.0}",20,0,"['As', 'Bi', 'Ca', 'O']",305.814522520513
104343,mp-558765,Li2Ni(WO4)2,3.3662,"{'Li': 2.0, 'Ni': 1.0, 'W': 2.0, 'O': 8.0}",13,0.001553009615385,"['Li', 'Ni', 'O', 'W']",141.143964212403
104350,mp-561048,K3VSO3,3.1402,"{'K': 6.0, 'V': 2.0, 'S': 2.0, 'O': 6.0}",16,0,"['K', 'O', 'S', 'V']",347.140138570005
104375,mp-571260,AlInI4,3.0259,"{'Al': 4.0, 'In': 4.0, 'I': 16.0}",24,0,"['Al', 'I', 'In']",1112.58839152082
104383,mp-6058,K2NaScF6,6.7576,"{'F': 6.0, 'Na': 1.0, 'K': 2.0, 'Sc': 1.0}",10,0,"['K', 'Na', 'Sc', 'F']",159.44175240104
104460,mp-777570,Li2MnFe(BO3)2,3.1509,"{'Li': 4.0, 'Mn': 2.0, 'Fe': 2.0, 'B': 4.0, 'O': 12.0}",24,0.002733877222219,"['B', 'Fe', 'Li', 'Mn', 'O']",248.572256406904
104532,mp-10970,LiErO2,4.1036,"{'Li': 4.0, 'O': 8.0, 'Er': 4.0}",16,0,"['Er', 'Li', 'O']",205.125926664417
104632,mp-1214081,Ca2ScTaO6,3.7273,"{'Ca': 4.0, 'Sc': 2.0, 'Ta': 2.0, 'O': 12.0}",20,0,"['Ca', 'O', 'Sc', 'Ta']",250.767152011585
104678,mp-1228095,Ba3Mo2(NO3)2,3.15,"{'Ba': 3.0, 'Mo': 2.0, 'N': 2.0, 'O': 6.0}",13,0.002697652459117,"['Ba', 'Mo', 'N', 'O']",232.049144757107
104691,mp-14070,RbAlO2,3.3693,"{'O': 4.0, 'Al': 2.0, 'Rb': 2.0}",8,0,"['Rb', 'Al', 'O']",133.576242092587
104692,mp-14363,Rb2LiAsO4,3.5526,"{'Li': 2.0, 'O': 8.0, 'As': 2.0, 'Rb': 4.0}",16,0,"['As', 'Li', 'O', 'Rb']",284.524449306792
104694,mp-1582,As2O3,3.9546,"{'O': 12.0, 'As': 8.0}",20,0.0065390675,"['As', 'O']",363.328471486688
104710,mp-23432,BaClF,5.4426,"{'F': 2.0, 'Cl': 2.0, 'Ba': 2.0}",6,0,"['Ba', 'Cl', 'F']",146.253388212456
104735,mp-546794,SiO2,5.7034,"{'Si': 2.0, 'O': 4.0}",6,0,"['Si', 'O']",93.9589186748777
104743,mp-555102,Ni(BO2)2,3.6763,"{'Ni': 2.0, 'B': 4.0, 'O': 8.0}",14,0.00512312634921,"['B', 'Ni', 'O']",110.397872269151
104760,mp-561018,Na3Sc2(BO3)3,3.7232,"{'Na': 6.0, 'Sc': 4.0, 'B': 6.0, 'O': 18.0}",34,0,"['B', 'Na', 'O', 'Sc']",438.494536481901
104798,mp-6596,MgAlPO5,5.0452,"{'O': 20.0, 'Mg': 4.0, 'Al': 4.0, 'P': 4.0}",32,0,"['Al', 'Mg', 'O', 'P']",410.296835531396
104916,mp-767518,Na2ScPCO7,4.3432,"{'Na': 4.0, 'Sc': 2.0, 'P': 2.0, 'C': 2.0, 'O': 14.0}",24,0,"['C', 'Na', 'O', 'P', 'Sc']",324.311916912381
104917,mp-767546,Na2AsPCO7,4.1675,"{'Na': 4.0, 'As': 2.0, 'P': 2.0, 'C': 2.0, 'O': 14.0}",24,0.009211894270831,"['As', 'C', 'Na', 'O', 'P']",331.356491788824
104972,mp-8537,S(OF)2,5.8812,"{'O': 8.0, 'F': 8.0, 'S': 4.0}",20,0,"['S', 'O', 'F']",351.856463900969
105092,mp-10971,LiErO2,4.1714,"{'Li': 2.0, 'O': 4.0, 'Er': 2.0}",8,0.00263313625,"['Er', 'Li', 'O']",101.125262512965
105186,mp-1205992,HfMnF6,4.9408,"{'Hf': 1.0, 'Mn': 1.0, 'F': 6.0}",8,0,"['F', 'Hf', 'Mn']",142.49017798969
105189,mp-1207720,Y(ClO4)3,5.0361,"{'Y': 2.0, 'Cl': 6.0, 'O': 24.0}",32,0,"['Cl', 'O', 'Y']",439.635775247912
105214,mp-1218601,Sr3CaNi2(WO6)2,3.3468,"{'Sr': 3.0, 'Ca': 1.0, 'Ni': 2.0, 'W': 2.0, 'O': 12.0}",20,0.001854147833336,"['Ca', 'Ni', 'O', 'Sr', 'W']",251.907732908064
105235,mp-1225948,CsGaNiF6,4.2448,"{'Cs': 2.0, 'Ga': 2.0, 'Ni': 2.0, 'F': 12.0}",18,0,"['Cs', 'F', 'Ga', 'Ni']",282.558982836264
105263,mp-15157,Cs2CaF4,6.1005,"{'F': 4.0, 'Ca': 1.0, 'Cs': 2.0}",7,0,"['Cs', 'Ca', 'F']",156.847618363074
105264,mp-16577,Li2CaHfF8,7.0123,"{'Li': 2.0, 'F': 8.0, 'Ca': 1.0, 'Hf': 1.0}",12,0,"['Ca', 'F', 'Hf', 'Li']",142.168093694237
105322,mp-555863,P4PtF12,4.9369,"{'P': 4.0, 'Pt': 1.0, 'F': 12.0}",17,0,"['F', 'P', 'Pt']",300.123061714969
105323,mp-556372,CaSO4,5.6741,"{'Ca': 3.0, 'S': 3.0, 'O': 12.0}",18,0.002783582777777,"['Ca', 'O', 'S']",273.883548445574
105431,mp-7995,Mg2BO3F,4.4511,"{'B': 4.0, 'O': 12.0, 'F': 4.0, 'Mg': 8.0}",28,0.002147751517857,"['B', 'F', 'Mg', 'O']",281.651408583069
105445,mp-8697,ScBO3,4.1348,"{'B': 2.0, 'O': 6.0, 'Sc': 2.0}",10,0,"['Sc', 'B', 'O']",102.964198164844
105508,mp-1029,BaF2,6.6232,"{'F': 2.0, 'Ba': 1.0}",3,0,"['Ba', 'F']",62.0094560310244
105646,mp-1190321,Zn3P2Pb3WO14,3.5375,"{'Zn': 3.0, 'P': 2.0, 'Pb': 3.0, 'W': 1.0, 'O': 14.0}",23,0,"['O', 'P', 'Pb', 'W', 'Zn']",330.731834709375
105794,mp-18096,Na2Co(Si2O5)2,3.0625,"{'O': 20.0, 'Na': 4.0, 'Si': 8.0, 'Co': 2.0}",34,0,"['Co', 'Na', 'O', 'Si']",454.778873612204
105813,mp-23522,BaZnCl4,4.5948,"{'Cl': 16.0, 'Zn': 4.0, 'Ba': 4.0}",24,0.006518185833333,"['Ba', 'Cl', 'Zn']",713.984495809183
105841,mp-5418,Li6Zr2O7,3.9436,"{'Li': 12.0, 'O': 14.0, 'Zr': 4.0}",30,0,"['Li', 'O', 'Zr']",325.114980108853
105847,mp-556797,K2Si3SnO9,3.8608,"{'K': 4.0, 'Si': 6.0, 'Sn': 2.0, 'O': 18.0}",30,0,"['K', 'O', 'Si', 'Sn']",462.308187847271
105876,mp-676361,Li3ErCl6,5.21,"{'Li': 9.0, 'Er': 3.0, 'Cl': 18.0}",30,0,"['Cl', 'Er', 'Li']",650.730522310363
105881,mp-6951,RbCdF3,3.1745,"{'F': 3.0, 'Rb': 1.0, 'Cd': 1.0}",5,0,"['Rb', 'Cd', 'F']",91.3029680397465
105935,mp-768663,Na3SiBiCO7,3.2654,"{'Na': 6.0, 'Si': 2.0, 'Bi': 2.0, 'C': 2.0, 'O': 14.0}",26,0.000198174903851,"['Bi', 'C', 'Na', 'O', 'Si']",355.363375861989
105997,mp-998433,CsSrBr3,4.4089,"{'Cs': 2.0, 'Sr': 2.0, 'Br': 6.0}",10,0.007210681499999,"['Br', 'Cs', 'Sr']",412.081327008888
106012,mp-1019602,Cs2Al2B2O7,4.246,"{'Cs': 4.0, 'Al': 4.0, 'B': 4.0, 'O': 14.0}",26,0,"['Al', 'B', 'Cs', 'O']",433.810322914125
106053,mp-1101461,Rb2ZrO3,3.5381,"{'Rb': 8.0, 'Zr': 4.0, 'O': 12.0}",24,0.000406446666666,"['O', 'Rb', 'Zr']",490.491277587199
106149,mp-1207603,YGa3(BO3)4,4.3959,"{'Y': 1.0, 'Ga': 3.0, 'B': 4.0, 'O': 12.0}",20,0.002817675291665,"['B', 'Ga', 'O', 'Y']",198.463771890793
106151,mp-1208602,SrZrF6,6.2596,"{'Sr': 2.0, 'Zr': 2.0, 'F': 12.0}",16,0,"['F', 'Sr', 'Zr']",230.154159215045
106173,mp-1214125,Ca2ScNbO6,3.1458,"{'Ca': 4.0, 'Sc': 2.0, 'Nb': 2.0, 'O': 12.0}",20,0,"['Ca', 'Nb', 'O', 'Sc']",251.877994357431
106328,mp-23288,AlBr3,4.0967,"{'Al': 4.0, 'Br': 12.0}",16,0,"['Al', 'Br']",668.264797549243
106353,mp-4497,Si2N2O,4.9186,"{'N': 4.0, 'O': 2.0, 'Si': 4.0}",10,0,"['N', 'O', 'Si']",121.688487359173
106413,mp-6929,Ca2As2O7,3.323,"{'O': 7.0, 'Ca': 2.0, 'As': 2.0}",11,0,"['As', 'Ca', 'O']",165.281793169977
106431,mp-755990,Li2MnFe(BO3)2,3.0858,"{'Li': 4.0, 'Mn': 2.0, 'Fe': 2.0, 'B': 4.0, 'O': 12.0}",24,0.005025443888886,"['B', 'Fe', 'Li', 'Mn', 'O']",253.72946133764
106437,mp-758022,LiCoPO4,3.2239,"{'Li': 4.0, 'Co': 4.0, 'P': 4.0, 'O': 16.0}",28,0.003250795178572,"['Co', 'Li', 'O', 'P']",350.325617173497
106473,mp-7949,Rb2GeF6,5.7953,"{'F': 6.0, 'Ge': 1.0, 'Rb': 2.0}",9,0.009514161111112,"['Rb', 'Ge', 'F']",152.334022646675
106491,mp-998604,RbPbCl3,3.2697,"{'Rb': 2.0, 'Pb': 2.0, 'Cl': 6.0}",10,0,"['Cl', 'Pb', 'Rb']",336.880837367641
106507,mp-1020122,MgS2O7,5.5211,"{'Mg': 2.0, 'S': 4.0, 'O': 14.0}",20,0,"['Mg', 'O', 'S']",279.474856162477
106671,mp-1221184,Na4P6PbO18,4.9515,"{'Na': 4.0, 'P': 6.0, 'Pb': 1.0, 'O': 18.0}",29,4.70062787361059E-05,"['Na', 'O', 'P', 'Pb']",395.4747043724
106689,mp-1228136,Ba3Pb(SO4)4,4.6123,"{'Ba': 3.0, 'Pb': 1.0, 'S': 4.0, 'O': 16.0}",24,0.003685434583335,"['Ba', 'O', 'Pb', 'S']",354.728613348534
106693,mp-1228567,Ba2NaMn3F11,3.6848,"{'Ba': 4.0, 'Na': 2.0, 'Mn': 6.0, 'F': 22.0}",34,0.006381459264702,"['Ba', 'F', 'Mn', 'Na']",524.182255163896
106716,mp-15703,BeCN2,3.8561,"{'Be': 2.0, 'C': 2.0, 'N': 4.0}",8,0.003614170625,"['Be', 'C', 'N']",49.4793561357346
106722,mp-19799,BaPbF6,3.0264,"{'F': 6.0, 'Ba': 1.0, 'Pb': 1.0}",8,0,"['Ba', 'Pb', 'F']",133.570737401196
106748,mp-23210,MgCl2,5.6177,"{'Mg': 1.0, 'Cl': 2.0}",3,0,"['Mg', 'Cl']",76.9298088828795
106773,mp-28251,Ta2Zn3O8,3.5074,"{'O': 16.0, 'Zn': 6.0, 'Ta': 4.0}",26,0,"['O', 'Ta', 'Zn']",332.155989972019
106776,mp-28406,SCl2O,3.6259,"{'O': 4.0, 'S': 4.0, 'Cl': 8.0}",16,0,"['Cl', 'O', 'S']",477.728033676815
106809,mp-505702,Pb2CO4,3.4145,"{'Pb': 8.0, 'C': 4.0, 'O': 16.0}",28,0,"['C', 'O', 'Pb']",474.138875146912
106861,mp-560527,SiO2,5.3907,"{'Si': 8.0, 'O': 16.0}",24,0.009901827916666,"['O', 'Si']",455.654421206145
106936,mp-760755,KAl11O17,4.6169,"{'K': 1.0, 'Al': 11.0, 'O': 17.0}",29,0.006882722241381,"['Al', 'K', 'O']",317.169636235204
106976,mp-8892,LiInF4,4.0149,"{'Li': 4.0, 'F': 16.0, 'In': 4.0}",24,0,"['F', 'In', 'Li']",294.542821363023
107001,mp-1025267,Cs2CaBr4,4.4815,"{'Cs': 2.0, 'Ca': 1.0, 'Br': 4.0}",7,0,"['Cs', 'Ca', 'Br']",300.501978988672
107008,mp-10408,K2CN2,3.1453,"{'C': 1.0, 'N': 2.0, 'K': 2.0}",5,0,"['K', 'C', 'N']",93.6205869181259
107040,mp-1111491,K3FeF6,4.1248,"{'K': 3.0, 'Fe': 1.0, 'F': 6.0}",10,0,"['F', 'Fe', 'K']",177.937683513518
107082,mp-1190588,Ba2Cd(BO2)6,4.3374,"{'Ba': 2.0, 'Cd': 1.0, 'B': 6.0, 'O': 12.0}",21,0,"['B', 'Ba', 'Cd', 'O']",268.843673271107
107110,mp-1209189,RbSr2Br5,4.286,"{'Rb': 4.0, 'Sr': 8.0, 'Br': 20.0}",32,0,"['Br', 'Rb', 'Sr']",1104.32629141655
107135,mp-1216,YbO,3.4728,"{'O': 1.0, 'Yb': 1.0}",2,0,"['Yb', 'O']",26.7770706053839
107207,mp-19078,Ba2SrWO6,3.3586,"{'Ba': 2.0, 'Sr': 1.0, 'W': 1.0, 'O': 6.0}",10,0.001087607999998,"['Ba', 'O', 'Sr', 'W']",166.34063488589
107269,mp-560104,LiTaGeO5,3.7969,"{'Li': 4.0, 'Ta': 4.0, 'Ge': 4.0, 'O': 20.0}",32,0,"['Ge', 'Li', 'O', 'Ta']",415.448686968868
107273,mp-560956,Cs2KCrF6,4.0745,"{'F': 6.0, 'K': 1.0, 'Cr': 1.0, 'Cs': 2.0}",10,0,"['Cs', 'K', 'Cr', 'F']",193.465154295314
107289,mp-571442,YI3,3.0409,"{'Y': 2.0, 'I': 6.0}",8,0,"['I', 'Y']",388.770686710659
107294,mp-5838,Ba2SiS4,3.0012,"{'Si': 4.0, 'S': 16.0, 'Ba': 8.0}",28,0,"['Ba', 'S', 'Si']",762.211883908719
107423,mp-7645,KAl(SO4)2,5.5292,"{'O': 8.0, 'Al': 1.0, 'S': 2.0, 'K': 1.0}",12,0,"['Al', 'K', 'O', 'S']",172.209817642273
107485,mp-9144,LiAsF6,5.0458,"{'Li': 1.0, 'F': 6.0, 'As': 1.0}",8,0,"['As', 'F', 'Li']",101.765333422059
107585,mp-1112516,Cs2RbGdCl6,3.095,"{'Cs': 2.0, 'Rb': 1.0, 'Gd': 1.0, 'Cl': 6.0}",10,0.00758080075,"['Cl', 'Cs', 'Gd', 'Rb']",392.821457315646
107770,mp-18727,LiCr(SiO3)2,3.0338,"{'Li': 2.0, 'O': 12.0, 'Si': 4.0, 'Cr': 2.0}",20,0.002855698999998,"['Cr', 'Li', 'O', 'Si']",213.258834583456
107803,mp-505274,Na2SO4,5.0266,"{'Na': 8.0, 'S': 4.0, 'O': 16.0}",28,0.006400186785715,"['Na', 'O', 'S']",364.813646648387
107884,mp-7593,RbLiF2,6.1578,"{'Li': 4.0, 'F': 8.0, 'Rb': 4.0}",16,0.005981345,"['F', 'Li', 'Rb']",267.093959045414
107950,mp-8652,SF6,5.8901,"{'F': 18.0, 'S': 3.0}",21,0.002690535714286,"['F', 'S']",304.196306524099
107984,mp-989529,KRb2InCl6,3.5425,"{'K': 1.0, 'Rb': 2.0, 'In': 1.0, 'Cl': 6.0}",10,0,"['K', 'Rb', 'In', 'Cl']",338.510971004536
107992,mvc-12368,CaTi2O5,3.1636,"{'Ca': 2.0, 'Ti': 4.0, 'O': 10.0}",16,0.003062759531248,"['Ca', 'O', 'Ti']",214.705539888697
108273,mp-1225922,CsMgAlF6,6.837,"{'Cs': 2.0, 'Mg': 2.0, 'Al': 2.0, 'F': 12.0}",18,0,"['Al', 'Cs', 'F', 'Mg']",266.860401277269
108291,mp-13252,SnB4O7,3.5752,"{'B': 8.0, 'O': 14.0, 'Sn': 2.0}",24,0,"['B', 'O', 'Sn']",211.241630760052
108292,mp-13596,K2ZrF6,5.695,"{'F': 12.0, 'K': 4.0, 'Zr': 2.0}",18,0.001115240555556,"['F', 'K', 'Zr']",275.961488301388
108303,mp-17769,YSO4F,5.8491,"{'O': 16.0, 'F': 4.0, 'S': 4.0, 'Y': 4.0}",28,0.006914545714285,"['F', 'O', 'S', 'Y']",380.064018708586
108332,mp-28439,KSc2F7,5.721,"{'K': 1.0, 'Sc': 2.0, 'F': 7.0}",10,0.00874723275,"['F', 'K', 'Sc']",145.18061491019
108366,mp-558603,K2Si4O9,4.4472,"{'K': 4.0, 'Si': 8.0, 'O': 18.0}",30,0,"['K', 'O', 'Si']",496.131926113758
108430,mp-755436,Na3VO4,4.0347,"{'Na': 6.0, 'V': 2.0, 'O': 8.0}",16,0,"['Na', 'O', 'V']",247.598897006697
108566,mp-11321,Y3TaO7,3.504,"{'O': 14.0, 'Y': 6.0, 'Ta': 2.0}",22,0,"['O', 'Ta', 'Y']",301.806544482819
108624,mp-1204192,Ba2V2Te2O11,3.2824,"{'Ba': 4.0, 'V': 4.0, 'Te': 4.0, 'O': 22.0}",34,0.00132529014707,"['Ba', 'O', 'Te', 'V']",580.767712805556
108638,mp-1206808,Cs2LiAlF6,6.8829,"{'Cs': 2.0, 'Li': 1.0, 'Al': 1.0, 'F': 6.0}",10,0,"['Al', 'Cs', 'F', 'Li']",175.296185283068
108677,mp-1214599,Ba2MoO3F4,3.1783,"{'Ba': 4.0, 'Mo': 2.0, 'O': 6.0, 'F': 8.0}",20,0.000452634625018,"['Ba', 'F', 'Mo', 'O']",330.077304033493
108724,mp-1223039,KTaWO6,3.2,"{'K': 2.0, 'Ta': 2.0, 'W': 2.0, 'O': 12.0}",18,0,"['K', 'O', 'Ta', 'W']",294.74964694048
108727,mp-1223322,KRbMnF6,3.2213,"{'K': 1.0, 'Rb': 1.0, 'Mn': 1.0, 'F': 6.0}",9,0.003186462777777,"['F', 'K', 'Mn', 'Rb']",155.931851316503
108760,mp-1227411,BaSrNiWO6,3.3775,"{'Ba': 1.0, 'Sr': 1.0, 'Ni': 1.0, 'W': 1.0, 'O': 6.0}",10,0.006982613000003,"['Ba', 'Ni', 'O', 'Sr', 'W']",133.398332489087
108845,mp-3970,K2TiF6,4.7262,"{'F': 6.0, 'K': 2.0, 'Ti': 1.0}",9,0,"['K', 'Ti', 'F']",139.974825119245
109099,mp-1194834,BaSc2Si3O10,4.7533,"{'Ba': 2.0, 'Sc': 4.0, 'Si': 6.0, 'O': 20.0}",32,0,"['Ba', 'O', 'Sc', 'Si']",410.986493140456
109182,mp-1226151,Cs2SiB4O9,4.6244,"{'Cs': 2.0, 'Si': 1.0, 'B': 4.0, 'O': 9.0}",16,0,"['B', 'Cs', 'O', 'Si']",234.800281153351
109237,mp-17275,SrY2O4,3.6959,"{'O': 16.0, 'Sr': 4.0, 'Y': 8.0}",28,0.003580470714285,"['Sr', 'Y', 'O']",421.460867595374
109252,mp-19346,Fe3(PO4)2,3.4938,"{'O': 16.0, 'P': 4.0, 'Fe': 6.0}",26,0,"['Fe', 'O', 'P']",315.145328413101
109274,mp-23063,Ba4Cl6O,4.3699,"{'O': 2.0, 'Cl': 12.0, 'Ba': 8.0}",22,0,"['Ba', 'Cl', 'O']",683.867559326088
109310,mp-30187,Ga2Te4O11,3.5021,"{'O': 11.0, 'Ga': 2.0, 'Te': 4.0}",17,0.008775441470588,"['Ga', 'O', 'Te']",265.584093040268
109328,mp-4360,NaCdF3,3.513,"{'Na': 2.0, 'Cd': 2.0, 'F': 6.0}",10,0,"['Cd', 'F', 'Na']",149.738040424953
109354,mp-557772,CsNiF3,5.3644,"{'F': 6.0, 'Ni': 2.0, 'Cs': 2.0}",10,0,"['Cs', 'Ni', 'F']",183.921667999387
109361,mp-560902,MnF2,3.2185,"{'Mn': 2.0, 'F': 4.0}",6,0,"['Mn', 'F']",82.8263940689629
109363,mp-561424,KAlF4,6.9088,"{'K': 4.0, 'Al': 4.0, 'F': 16.0}",24,0,"['Al', 'F', 'K']",343.259540640285
109397,mp-676483,NaLiZnP2O7,4.2379,"{'Na': 2.0, 'Li': 2.0, 'Zn': 2.0, 'P': 4.0, 'O': 14.0}",24,0,"['Li', 'Na', 'O', 'P', 'Zn']",307.031556830258
109450,mp-768670,K3MgPCO7,4.4383,"{'K': 6.0, 'Mg': 2.0, 'P': 2.0, 'C': 2.0, 'O': 14.0}",26,0.003975313942311,"['C', 'K', 'Mg', 'O', 'P']",376.936448446361
109553,mp-1112125,Cs2RbInCl6,3.5753,"{'Cs': 2.0, 'Rb': 1.0, 'In': 1.0, 'Cl': 6.0}",10,0.001341792750001,"['Cl', 'Cs', 'In', 'Rb']",367.067264359182
109554,mp-1112534,Cs2NaScBr6,3.1082,"{'Cs': 2.0, 'Na': 1.0, 'Sc': 1.0, 'Br': 6.0}",10,0,"['Br', 'Cs', 'Na', 'Sc']",358.33643124597
109704,mp-13925,Cs2NaYF6,6.8654,"{'F': 6.0, 'Na': 1.0, 'Y': 1.0, 'Cs': 2.0}",10,0,"['Cs', 'Na', 'Y', 'F']",194.761365476613
109722,mp-22904,CaCl2,5.3548,"{'Cl': 4.0, 'Ca': 2.0}",6,0,"['Ca', 'Cl']",175.099452007143
109726,mp-23193,KCl,5.027,"{'Cl': 1.0, 'K': 1.0}",2,0,"['K', 'Cl']",65.3914085710218
109753,mp-4429,CaSiO3,4.8375,"{'O': 18.0, 'Si': 6.0, 'Ca': 6.0}",30,2.72013333324494E-05,"['Ca', 'Si', 'O']",410.563687323334
109758,mp-504849,Cs2Li2SiO4,3.8533,"{'Si': 2.0, 'Cs': 4.0, 'Li': 4.0, 'O': 8.0}",18,0,"['Cs', 'Li', 'O', 'Si']",298.575249372474
109769,mp-554381,Ca2VBiO6,3.0551,"{'Ca': 4.0, 'V': 2.0, 'Bi': 2.0, 'O': 12.0}",20,0,"['Bi', 'Ca', 'O', 'V']",305.336426631214
109770,mp-554948,NaI(OF)2,4.2537,"{'Na': 2.0, 'I': 2.0, 'O': 4.0, 'F': 4.0}",12,0,"['F', 'I', 'Na', 'O']",198.428062916871
109771,mp-555023,KCa4(BO3)3,4.5897,"{'K': 2.0, 'Ca': 8.0, 'B': 6.0, 'O': 18.0}",34,0,"['B', 'Ca', 'K', 'O']",410.710061254207
109784,mp-557483,YbClF,6.0556,"{'Yb': 2.0, 'Cl': 2.0, 'F': 2.0}",6,0,"['Yb', 'Cl', 'F']",99.474761616201
109791,mp-558673,Pb3WCl2O5,3.05,"{'Pb': 6.0, 'W': 2.0, 'Cl': 4.0, 'O': 10.0}",22,0,"['Cl', 'O', 'Pb', 'W']",428.674812214545
109793,mp-559186,BaBiBO4,3.5551,"{'Ba': 4.0, 'Bi': 4.0, 'B': 4.0, 'O': 16.0}",28,0,"['B', 'Ba', 'Bi', 'O']",452.427481814972
109813,mp-568796,RbYbI3,3.6054,"{'Yb': 4.0, 'Rb': 4.0, 'I': 12.0}",20,0.00075425,"['I', 'Rb', 'Yb']",869.738621798417
109827,mp-5926,KCaF3,6.6471,"{'F': 12.0, 'K': 4.0, 'Ca': 4.0}",20,0,"['Ca', 'F', 'K']",346.65639886037
109870,mp-6867,KCaCO3F,4.3468,"{'C': 1.0, 'O': 3.0, 'F': 1.0, 'K': 1.0, 'Ca': 1.0}",7,0,"['K', 'Ca', 'C', 'O', 'F']",104.100981293532
109954,mp-775757,HfO2,4.0165,"{'Hf': 8.0, 'O': 16.0}",24,0.009558819999999,"['Hf', 'O']",279.234076403987
109961,mp-779056,Li2FeP2O7,3.9622,"{'Li': 4.0, 'Fe': 2.0, 'P': 4.0, 'O': 14.0}",24,0.00696122249999,"['Fe', 'Li', 'O', 'P']",286.061613263803
110033,mp-1078181,SiBr3,3.9433,"{'Si': 2.0, 'Br': 6.0}",8,0.0038544296875,"['Br', 'Si']",305.583418855581
110055,mp-1105453,SbPbF7,4.0464,"{'Sb': 2.0, 'Pb': 2.0, 'F': 14.0}",18,0,"['F', 'Pb', 'Sb']",271.07536267639
110154,mp-1213645,CsSrCl3,5.0137,"{'Cs': 2.0, 'Sr': 2.0, 'Cl': 6.0}",10,0.009401214499999,"['Cl', 'Cs', 'Sr']",373.433626530861