,task_id,pretty_formula,band_gap,unit_cell_formula,nsites,e_above_hull,elements,volume
47477,mp-9820,CsAsF6,5.1311,"{'F': 6.0, 'As': 1.0, 'Cs': 1.0}",8,0,"['As', 'Cs', 'F']",148.614709331226
47671,mp-1209626,Rb2ErCl5,4.931,"{'Rb': 8.0, 'Er': 4.0, 'Cl': 20.0}",32,0.005834611812499,"['Cl', 'Er', 'Rb']",1064.18446779201
47680,mp-1210603,MgZn2(PO4)2,3.9604,"{'Mg': 2.0, 'Zn': 4.0, 'P': 4.0, 'O': 16.0}",26,0.000103067051281,"['Mg', 'O', 'P', 'Zn']",330.19892552265
47681,mp-1210623,MgGaBO4,3.1096,"{'Mg': 4.0, 'Ga': 4.0, 'B': 4.0, 'O': 16.0}",28,0.003800704642856,"['B', 'Ga', 'Mg', 'O']",272.659286046206
47769,mp-12403,LiBF4,8.2462,"{'Li': 3.0, 'B': 3.0, 'F': 12.0}",18,0,"['Li', 'B', 'F']",242.710641782768
47829,mp-4376,BaAlF5,7.2832,"{'F': 20.0, 'Al': 4.0, 'Ba': 4.0}",28,0,"['Al', 'Ba', 'F']",403.28020200422
47841,mp-556993,NiBiPO5,3.8254,"{'Ni': 4.0, 'Bi': 4.0, 'P': 4.0, 'O': 20.0}",32,0,"['Bi', 'Ni', 'O', 'P']",413.337239753984
47844,mp-558111,Rb2MnF6,3.3104,"{'F': 6.0, 'Mn': 1.0, 'Rb': 2.0}",9,0,"['F', 'Mn', 'Rb']",165.026001497384
47849,mp-560019,K2Ge3(BO5)2,3.8565,"{'K': 4.0, 'Ge': 6.0, 'B': 4.0, 'O': 20.0}",34,0.000712168856215,"['B', 'Ge', 'K', 'O']",457.045407335532
47965,mp-778744,Li2MnNi(PO4)2,3.0255,"{'Li': 4.0, 'Mn': 2.0, 'Ni': 2.0, 'P': 4.0, 'O': 16.0}",28,0.006080419107142,"['Li', 'Mn', 'Ni', 'O', 'P']",295.441546139744
47979,mp-972387,Sr2MgGe2O7,3.6062,"{'Sr': 4.0, 'Mg': 2.0, 'Ge': 4.0, 'O': 14.0}",24,0,"['Ge', 'Mg', 'O', 'Sr']",366.942153824166
47989,mp-9788,SrPS3,3.1285,"{'P': 4.0, 'S': 12.0, 'Sr': 4.0}",20,0,"['P', 'S', 'Sr']",494.761971541273
48042,mp-1095079,K3AlF6,6.2965,"{'K': 3.0, 'Al': 1.0, 'F': 6.0}",10,0,"['Al', 'F', 'K']",164.994607437367
48207,mp-1225951,CsMgInF6,4.4311,"{'Cs': 2.0, 'Mg': 2.0, 'In': 2.0, 'F': 12.0}",18,0,"['Cs', 'F', 'In', 'Mg']",317.578346669712
48264,mp-14058,KMg(PO3)3,4.9474,"{'O': 18.0, 'Mg': 2.0, 'P': 6.0, 'K': 2.0}",28,0,"['K', 'Mg', 'O', 'P']",388.186087154831
48280,mp-20564,V2Pb3O8,3.0189,"{'O': 16.0, 'V': 4.0, 'Pb': 6.0}",26,0,"['O', 'Pb', 'V']",427.954526127872
48315,mp-4057,CsBF4,7.7984,"{'B': 4.0, 'F': 16.0, 'Cs': 4.0}",24,0,"['B', 'Cs', 'F']",454.213487391111
48327,mp-541040,Y2Be2GeO7,4.5401,"{'Y': 4.0, 'Ge': 2.0, 'Be': 4.0, 'O': 14.0}",24,0,"['Be', 'Ge', 'O', 'Y']",269.082867178996
48333,mp-554702,NaZr2NiF11,5.6395,"{'F': 11.0, 'Na': 1.0, 'Ni': 1.0, 'Zr': 2.0}",15,0,"['F', 'Na', 'Ni', 'Zr']",220.798354346222
48346,mp-558191,Na2ZrSi2O7,4.5655,"{'Na': 4.0, 'Zr': 2.0, 'Si': 4.0, 'O': 14.0}",24,0,"['Na', 'O', 'Si', 'Zr']",313.006761056545
48351,mp-562137,KLiCO3,4.5425,"{'K': 4.0, 'Li': 4.0, 'C': 4.0, 'O': 12.0}",24,0,"['C', 'K', 'Li', 'O']",325.684124241113
48353,mp-568909,Cs2MgCl4,4.9977,"{'Cs': 8.0, 'Mg': 4.0, 'Cl': 16.0}",28,0.000818052857142,"['Cl', 'Cs', 'Mg']",1032.11463635673
48364,mp-6059,Cs2KYF6,6.464,"{'F': 6.0, 'K': 1.0, 'Y': 1.0, 'Cs': 2.0}",10,0,"['Cs', 'F', 'K', 'Y']",221.751323454859
48379,mp-6560,KSO2F,3.9829,"{'O': 4.0, 'F': 2.0, 'S': 2.0, 'K': 2.0}",10,0,"['K', 'S', 'O', 'F']",185.902632425628
48472,mp-866313,Ba3In(BO3)3,3.4845,"{'Ba': 6.0, 'In': 2.0, 'B': 6.0, 'O': 18.0}",32,0,"['B', 'Ba', 'In', 'O']",460.126518719988
48506,mp-1020657,NaSr(PO3)3,5.3928,"{'Na': 2.0, 'Sr': 2.0, 'P': 6.0, 'O': 18.0}",28,0,"['Na', 'O', 'P', 'Sr']",383.253246941377
48523,mp-1078298,SbN(OF3)2,3.0917,"{'Sb': 1.0, 'N': 1.0, 'O': 2.0, 'F': 6.0}",10,0,"['F', 'N', 'O', 'Sb']",155.307688436743
48674,mp-1221451,Na2Al2B2O7,4.2617,"{'Na': 4.0, 'Al': 4.0, 'B': 4.0, 'O': 14.0}",26,0.000212208076921,"['Al', 'B', 'Na', 'O']",320.937761881334
48786,mp-28384,GaBr2,3.1591,"{'Ga': 8.0, 'Br': 16.0}",24,0,"['Br', 'Ga']",886.687657273921
48800,mp-29826,ZnCN2,3.4506,"{'C': 4.0, 'N': 8.0, 'Zn': 4.0}",16,0,"['Zn', 'C', 'N']",219.413300565127
48814,mp-37436,Li7SbO6,3.4428,"{'Li': 7.0, 'O': 6.0, 'Sb': 1.0}",14,0.009151767857143,"['Li', 'O', 'Sb']",131.664674837656
48831,mp-5259,RbAlF4,6.9365,"{'F': 8.0, 'Al': 2.0, 'Rb': 2.0}",12,0.000277848833333,"['Rb', 'Al', 'F']",174.309852445284
48843,mp-554206,Cs2Al2As2O7,3.6624,"{'Cs': 2.0, 'Al': 2.0, 'As': 2.0, 'O': 7.0}",13,0,"['Al', 'As', 'Cs', 'O']",255.624647636968
48844,mp-554240,NaCa4(BO3)3,4.087,"{'Na': 2.0, 'Ca': 8.0, 'B': 6.0, 'O': 18.0}",34,0.000671869362745,"['B', 'Ca', 'Na', 'O']",399.481791358705
48868,mp-559092,ScF3,6.0487,"{'Sc': 1.0, 'F': 3.0}",4,0.00159766,"['Sc', 'F']",67.7738819389783
48875,mp-561412,CaCO3,4.9581,"{'Ca': 3.0, 'C': 3.0, 'O': 9.0}",15,0.0073591,"['Ca', 'C', 'O']",191.627890099114
48924,mp-7324,KBePO4,5.2347,"{'Be': 4.0, 'O': 16.0, 'P': 4.0, 'K': 4.0}",28,0,"['Be', 'K', 'O', 'P']",363.886885908354
48932,mp-755537,Y2HfO5,4.2493,"{'Y': 4.0, 'Hf': 2.0, 'O': 10.0}",16,0.000694674062499,"['Hf', 'O', 'Y']",253.233933309916
48970,mp-8054,NaSc(GeO3)2,3.5576,"{'O': 12.0, 'Na': 2.0, 'Sc': 2.0, 'Ge': 4.0}",20,0,"['Ge', 'Na', 'O', 'Sc']",258.956236631761
49008,mp-1020683,NaCa(PO3)3,5.4345,"{'Na': 2.0, 'Ca': 2.0, 'P': 6.0, 'O': 18.0}",28,0,"['Ca', 'Na', 'O', 'P']",362.427840193736
49101,mp-12021,AgBF4,3.3403,"{'B': 4.0, 'F': 16.0, 'Ag': 4.0}",24,0,"['Ag', 'B', 'F']",310.674982662761
49118,mp-1209239,RbSc(WO4)2,3.1936,"{'Rb': 2.0, 'Sc': 2.0, 'W': 4.0, 'O': 16.0}",24,0,"['O', 'Rb', 'Sc', 'W']",315.299887690422
49194,mp-16871,K2ZrGe2O7,3.9069,"{'O': 14.0, 'K': 4.0, 'Ge': 4.0, 'Zr': 2.0}",24,0,"['Ge', 'K', 'O', 'Zr']",364.644481505543
49225,mp-29205,YBO3,5.1672,"{'B': 6.0, 'O': 18.0, 'Y': 6.0}",30,0,"['B', 'O', 'Y']",336.095564744669
49240,mp-4481,Ca2SiO4,4.1994,"{'O': 16.0, 'Si': 4.0, 'Ca': 8.0}",28,0,"['Ca', 'Si', 'O']",395.788121221944
49242,mp-504460,LiMnGaF6,3.7834,"{'Ga': 3.0, 'Mn': 3.0, 'Li': 3.0, 'F': 18.0}",27,0,"['F', 'Ga', 'Li', 'Mn']",322.229398299866
49264,mp-555665,NaVO3,3.0726,"{'Na': 4.0, 'V': 4.0, 'O': 12.0}",20,0.0010914805,"['Na', 'O', 'V']",293.278584169876
49354,mp-753014,VO2F,3.0523,"{'V': 4.0, 'O': 8.0, 'F': 4.0}",16,0.003838205,"['F', 'O', 'V']",239.878824528861
49377,mp-755319,Li2MnFe(BO3)2,3.0082,"{'Li': 4.0, 'Mn': 2.0, 'Fe': 2.0, 'B': 4.0, 'O': 12.0}",24,0.004469119722218,"['B', 'Fe', 'Li', 'Mn', 'O']",253.648914287165
49455,mp-7765,Ba3SiO5,3.5418,"{'O': 10.0, 'Si': 2.0, 'Ba': 6.0}",18,0.003986087499998,"['Ba', 'O', 'Si']",312.576933790772
49484,mp-8973,NaSi2N3,4.184,"{'N': 6.0, 'Na': 2.0, 'Si': 4.0}",12,0,"['Na', 'Si', 'N']",129.516693713161
49494,mp-989531,Cs2KGaF6,6.0426,"{'Cs': 2.0, 'K': 1.0, 'Ga': 1.0, 'F': 6.0}",10,0,"['Cs', 'F', 'Ga', 'K']",191.970155258714
49544,mp-1079891,Ba2Br2O,3.3041,"{'Ba': 4.0, 'Br': 4.0, 'O': 2.0}",10,0,"['Ba', 'Br', 'O']",333.039937105258
49588,mp-1112965,Cs3ScF6,6.2439,"{'Cs': 3.0, 'Sc': 1.0, 'F': 6.0}",10,0,"['Cs', 'F', 'Sc']",233.55902952012
49662,mp-1205960,K2SnF6,5.3336,"{'K': 2.0, 'Sn': 1.0, 'F': 6.0}",9,0,"['F', 'K', 'Sn']",160.433754609432
49668,mp-1209980,NaLiBeF4,7.3931,"{'Na': 4.0, 'Li': 4.0, 'Be': 4.0, 'F': 16.0}",28,0.003315102916666,"['Be', 'F', 'Li', 'Na']",322.108259830987
49674,mp-1211320,KRb2InF6,5.336,"{'K': 2.0, 'Rb': 4.0, 'In': 2.0, 'F': 12.0}",20,0,"['F', 'In', 'K', 'Rb']",398.538618848922
49707,mp-1221048,NaLiV2O6,3.1446,"{'Na': 2.0, 'Li': 2.0, 'V': 4.0, 'O': 12.0}",20,0.000235257500004,"['Li', 'Na', 'O', 'V']",291.657669693938
49721,mp-1228580,Ba2As6O11,3.1731,"{'Ba': 2.0, 'As': 6.0, 'O': 11.0}",19,0.000639728684213,"['As', 'Ba', 'O']",350.824630063161
49775,mp-27369,RbGeCl3,3.7888,"{'Cl': 6.0, 'Ge': 2.0, 'Rb': 2.0}",10,0,"['Cl', 'Ge', 'Rb']",339.235966236869
49784,mp-29873,Rb2CdCl4,3.1707,"{'Rb': 2.0, 'Cd': 1.0, 'Cl': 4.0}",7,0.00861097357143,"['Rb', 'Cd', 'Cl']",230.28213007951
49786,mp-30139,BeBr2,5.1775,"{'Be': 2.0, 'Br': 4.0}",6,0,"['Be', 'Br']",203.457383374977
49796,mp-3919,KBO2,4.1301,"{'B': 6.0, 'O': 12.0, 'K': 6.0}",24,0,"['B', 'K', 'O']",360.806662335698
49798,mp-3953,CaCO3,5.0016,"{'C': 2.0, 'O': 6.0, 'Ca': 2.0}",10,0,"['Ca', 'C', 'O']",127.170260666385
49810,mp-554705,Ni2P2O7,3.7913,"{'Ni': 4.0, 'P': 4.0, 'O': 14.0}",22,0.003752344772727,"['Ni', 'O', 'P']",235.560648876805
49814,mp-557309,Na3LiWO5,3.812,"{'Na': 6.0, 'Li': 2.0, 'W': 2.0, 'O': 10.0}",20,0,"['Li', 'Na', 'O', 'W']",240.398271904021
49930,mp-8070,Li2BeSiO4,5.8713,"{'Li': 4.0, 'Be': 2.0, 'O': 8.0, 'Si': 2.0}",16,0,"['Be', 'Li', 'O', 'Si']",146.205840564866
49932,mp-8397,CsSrF3,6.4767,"{'F': 3.0, 'Sr': 1.0, 'Cs': 1.0}",5,0.003451987999999,"['Cs', 'Sr', 'F']",112.899279313947
49989,mp-988,Si3N4,4.244,"{'N': 8.0, 'Si': 6.0}",14,0,"['Si', 'N']",148.667985913365
50202,mp-1206863,CsCaCl3,5.3979,"{'Cs': 2.0, 'Ca': 2.0, 'Cl': 6.0}",10,0.000295313999998,"['Ca', 'Cl', 'Cs']",325.993456007618
50253,mp-1215941,YSc(BO3)2,4.5642,"{'Y': 1.0, 'Sc': 1.0, 'B': 2.0, 'O': 6.0}",10,0.007556970833333,"['B', 'O', 'Sc', 'Y']",112.202913297448
50285,mp-1238804,Cs4PbI6,3.4087,"{'Cs': 8.0, 'Pb': 2.0, 'I': 12.0}",22,0,"['Cs', 'I', 'Pb']",1194.51352638441
50335,mp-27791,SrBe3O4,4.1295,"{'Be': 6.0, 'O': 8.0, 'Sr': 2.0}",16,0,"['Be', 'O', 'Sr']",166.288115816335
50352,mp-4117,Li2Si2O5,5.1563,"{'Li': 4.0, 'O': 10.0, 'Si': 4.0}",18,0,"['Li', 'Si', 'O']",211.736879379651
50371,mp-556228,Na5Ca4P4O16F,4.7135,"{'Na': 5.0, 'Ca': 4.0, 'P': 4.0, 'O': 16.0, 'F': 1.0}",30,1.42839166681341E-05,"['Ca', 'F', 'Na', 'O', 'P']",377.772019812559
50475,mp-8926,Li3BN2,3.4806,"{'Li': 6.0, 'B': 2.0, 'N': 4.0}",12,0.003074953333333,"['B', 'Li', 'N']",114.540824135724
50558,mp-1111056,Na2LiAlF6,6.546,"{'Na': 2.0, 'Li': 1.0, 'Al': 1.0, 'F': 6.0}",10,0.004643215333335,"['Al', 'F', 'Li', 'Na']",112.032394814994
50635,mp-1205367,K2FeF5,3.6988,"{'K': 4.0, 'Fe': 2.0, 'F': 10.0}",16,5.80949999999802E-05,"['F', 'Fe', 'K']",255.4357464961
50637,mp-1206962,LiTaF6,6.146,"{'Li': 1.0, 'Ta': 1.0, 'F': 6.0}",8,0,"['F', 'Li', 'Ta']",127.137905270294
50643,mp-1208766,Sr2VBrO4,3.2815,"{'Sr': 8.0, 'V': 4.0, 'Br': 4.0, 'O': 16.0}",32,0,"['Br', 'O', 'Sr', 'V']",601.633976746479
50665,mp-1213714,Cs2FeF5,3.6944,"{'Cs': 8.0, 'Fe': 4.0, 'F': 20.0}",32,0,"['Cs', 'F', 'Fe']",628.994300831657
50670,mp-1214491,BaIBr,3.5403,"{'Ba': 4.0, 'I': 4.0, 'Br': 4.0}",12,0,"['Ba', 'Br', 'I']",467.50131877241
50721,mp-1223853,K2Zr(PO4)2,4.518,"{'K': 2.0, 'Zr': 1.0, 'P': 2.0, 'O': 8.0}",13,0,"['K', 'O', 'P', 'Zr']",217.527353196992
50804,mp-23539,KSn2Cl5,3.0025,"{'Cl': 10.0, 'K': 2.0, 'Sn': 4.0}",16,0,"['Cl', 'K', 'Sn']",471.884479623223
50823,mp-31269,Na2S2O7,5.0884,"{'O': 14.0, 'Na': 4.0, 'S': 4.0}",22,0,"['Na', 'O', 'S']",295.573154331855
50845,mp-554701,SbP(OF3)2,4.3948,"{'Sb': 2.0, 'P': 2.0, 'O': 4.0, 'F': 12.0}",20,0,"['F', 'O', 'P', 'Sb']",316.508298956693
50849,mp-555851,Na2Cd3(P2O7)2,3.0513,"{'Na': 2.0, 'Cd': 3.0, 'P': 4.0, 'O': 14.0}",23,0,"['Cd', 'Na', 'O', 'P']",296.692740093378
50853,mp-558016,CaMgAsO4F,3.7526,"{'Ca': 2.0, 'Mg': 2.0, 'As': 2.0, 'O': 8.0, 'F': 2.0}",16,0.000305709375001,"['As', 'Ca', 'F', 'Mg', 'O']",203.429880037353
50865,mp-570935,LiI,4.3818,"{'Li': 2.0, 'I': 2.0}",4,0,"['Li', 'I']",134.038284322803
50867,mp-574653,Cs2LiIr(CN)6,5.4034,"{'Cs': 2.0, 'Li': 1.0, 'Ir': 1.0, 'C': 6.0, 'N': 6.0}",16,0,"['C', 'Cs', 'Ir', 'Li', 'N']",320.177209429457
50881,mp-6511,KCSN,4.1211,"{'C': 4.0, 'N': 4.0, 'S': 4.0, 'K': 4.0}",16,0.004644390520836,"['C', 'K', 'N', 'S']",356.61888422926
50891,mp-6766,CaMg(SiO3)2,4.9717,"{'O': 12.0, 'Mg': 2.0, 'Si': 4.0, 'Ca': 2.0}",20,0,"['Ca', 'Mg', 'Si', 'O']",228.348245252621
50964,mp-7998,Li2Ge2O5,3.4088,"{'Li': 4.0, 'O': 10.0, 'Ge': 4.0}",18,1.49790740744393E-05,"['Ge', 'Li', 'O']",236.019756213859
51005,mp-1020628,SrGe(PO4)2,4.0962,"{'Sr': 2.0, 'Ge': 2.0, 'P': 4.0, 'O': 16.0}",24,0,"['Ge', 'O', 'P', 'Sr']",306.735406409803
51031,mp-1095215,K2Mg(CO3)2,4.239,"{'K': 2.0, 'Mg': 1.0, 'C': 2.0, 'O': 6.0}",11,0.002678676363636,"['C', 'K', 'Mg', 'O']",138.615063309556
51105,mp-1194160,BaHf(SiO3)3,4.6845,"{'Ba': 2.0, 'Hf': 2.0, 'Si': 6.0, 'O': 18.0}",28,0,"['Ba', 'Hf', 'O', 'Si']",409.149841841535
51133,mp-1209986,NaLiEr2F8,7.235,"{'Na': 2.0, 'Li': 2.0, 'Er': 4.0, 'F': 16.0}",24,0,"['Er', 'F', 'Li', 'Na']",311.197786509834
51212,mp-18451,KEr3F10,7.0612,"{'F': 20.0, 'K': 2.0, 'Er': 6.0}",28,0,"['Er', 'F', 'K']",385.855320530649
51258,mp-27277,PCl3O,4.4528,"{'O': 4.0, 'P': 4.0, 'Cl': 12.0}",20,0,"['P', 'Cl', 'O']",590.004383891478
51300,mp-4673,SrHfO3,3.9575,"{'O': 12.0, 'Sr': 4.0, 'Hf': 4.0}",20,0.0030874885,"['Sr', 'Hf', 'O']",278.415303556565
51304,mp-504910,Sr(BrO3)2,4.1381,"{'Sr': 2.0, 'Br': 4.0, 'O': 12.0}",18,0,"['Br', 'O', 'Sr']",296.991180584036
51320,mp-541462,SrTa4O11,3.5305,"{'Sr': 2.0, 'Ta': 8.0, 'O': 22.0}",32,0,"['O', 'Sr', 'Ta']",430.855678685801
51341,mp-557414,BaSi6N8O,4.2416,"{'Ba': 1.0, 'Si': 6.0, 'N': 8.0, 'O': 1.0}",16,0,"['Ba', 'N', 'O', 'Si']",194.907693278507
51346,mp-558198,Na2Cd(SO4)2,3.7887,"{'Na': 4.0, 'Cd': 2.0, 'S': 4.0, 'O': 16.0}",26,0,"['Cd', 'Na', 'O', 'S']",342.066400177671
51353,mp-559550,SiO2,5.5993,"{'Si': 6.0, 'O': 12.0}",18,0.007955962777777,"['O', 'Si']",328.266207422634
51376,mp-570158,KRb3CdCl6,4.0135,"{'K': 2.0, 'Rb': 6.0, 'Cd': 2.0, 'Cl': 12.0}",22,0,"['Cd', 'Cl', 'K', 'Rb']",718.530239854739
51431,mp-754853,CaHfO3,4.4855,"{'Ca': 4.0, 'Hf': 4.0, 'O': 12.0}",20,0,"['Ca', 'Hf', 'O']",258.075114972523
51456,mp-768232,Rb3SbO3,3.161,"{'Rb': 12.0, 'Sb': 4.0, 'O': 12.0}",28,0,"['O', 'Rb', 'Sb']",696.013593998755
51505,mp-1019550,BeGeN2,3.3941,"{'Be': 4.0, 'Ge': 4.0, 'N': 8.0}",16,0,"['Be', 'Ge', 'N']",150.199701434995
51706,mp-17559,Y2TiO5,3.2775,"{'O': 20.0, 'Ti': 4.0, 'Y': 8.0}",32,0,"['O', 'Ti', 'Y']",440.985617968195
51723,mp-22888,CaBr2,4.5304,"{'Ca': 2.0, 'Br': 4.0}",6,0,"['Ca', 'Br']",205.7212195258
51729,mp-26057,LiMnPO4,3.5393,"{'Li': 4.0, 'O': 16.0, 'P': 4.0, 'Mn': 4.0}",28,0.007935859642859,"['Li', 'Mn', 'O', 'P']",367.774439291915
51738,mp-29422,HfCl4,4.1644,"{'Cl': 8.0, 'Hf': 2.0}",10,0,"['Cl', 'Hf']",330.525027609476
51747,mp-38684,Li2MgCl4,5.277,"{'Cl': 8.0, 'Li': 4.0, 'Mg': 2.0}",14,0.006698627142857,"['Cl', 'Li', 'Mg']",290.93854283673
51761,mp-542069,Cs8Ta6O19,3.4757,"{'Ta': 6.0, 'Cs': 8.0, 'O': 19.0}",33,0,"['Cs', 'O', 'Ta']",719.024002553567
51765,mp-554159,Li2BeSiO4,5.5993,"{'Li': 4.0, 'Be': 2.0, 'Si': 2.0, 'O': 8.0}",16,0.005801710624999,"['Be', 'Li', 'O', 'Si']",149.345458065213
51803,mp-6134,LiCaAlF6,7.6455,"{'Li': 2.0, 'F': 12.0, 'Al': 2.0, 'Ca': 2.0}",18,0,"['Al', 'Ca', 'F', 'Li']",218.165547181006
51872,mp-752922,Li8HfO6,5.388,"{'Li': 8.0, 'Hf': 1.0, 'O': 6.0}",15,0.002725613666667,"['Hf', 'Li', 'O']",136.428575986043
51974,mp-8184,Li2ZnGeO4,3.1087,"{'Li': 4.0, 'O': 8.0, 'Zn': 2.0, 'Ge': 2.0}",16,0,"['Ge', 'Li', 'O', 'Zn']",181.590267734607
51975,mp-8258,BaAl4S7,3.1636,"{'Al': 8.0, 'S': 14.0, 'Ba': 2.0}",24,0,"['Al', 'Ba', 'S']",564.922696636485
52184,mp-1214796,Cs2SbF5,4.7219,"{'Cs': 4.0, 'Sb': 2.0, 'F': 10.0}",16,0,"['Cs', 'F', 'Sb']",368.246069071705
52219,mp-1228059,Ba3SrMg2(Si2O7)2,4.48,"{'Ba': 3.0, 'Sr': 1.0, 'Mg': 2.0, 'Si': 4.0, 'O': 14.0}",24,0.002132060833341,"['Ba', 'Mg', 'O', 'Si', 'Sr']",369.800185655199
52250,mp-18547,NaGdGeO4,3.2576,"{'O': 16.0, 'Na': 4.0, 'Ge': 4.0, 'Gd': 4.0}",28,0,"['Gd', 'Ge', 'Na', 'O']",411.975867612013
52278,mp-28583,Si2NCl5,5.0807,"{'N': 4.0, 'Si': 8.0, 'Cl': 20.0}",32,0.008729215859375,"['Cl', 'N', 'Si']",974.909353421276
52280,mp-29083,NaErCl4,4.9813,"{'Na': 2.0, 'Cl': 8.0, 'Er': 2.0}",12,0,"['Cl', 'Er', 'Na']",338.392244240727
52304,mp-541299,Zr4Cd(PO4)6,3.7527,"{'Cd': 1.0, 'Zr': 4.0, 'P': 6.0, 'O': 24.0}",35,0,"['Cd', 'O', 'P', 'Zr']",524.786187472255
52316,mp-559540,RbZnSClO4,4.5391,"{'Rb': 4.0, 'Zn': 4.0, 'S': 4.0, 'Cl': 4.0, 'O': 16.0}",32,0,"['Cl', 'O', 'Rb', 'S', 'Zn']",611.983741395759
52396,mp-770940,Na3NiAsCO7,3.304,"{'Na': 6.0, 'Ni': 2.0, 'As': 2.0, 'C': 2.0, 'O': 14.0}",26,0,"['As', 'C', 'Na', 'Ni', 'O']",322.925707328325
52567,mp-1103508,Sr3MgTa2O9,3.3127,"{'Sr': 3.0, 'Mg': 1.0, 'Ta': 2.0, 'O': 9.0}",15,0,"['Mg', 'O', 'Sr', 'Ta']",199.287587240341
52582,mp-1112596,Cs2NaAsF6,4.5636,"{'Cs': 2.0, 'Na': 1.0, 'As': 1.0, 'F': 6.0}",10,0,"['As', 'Cs', 'F', 'Na']",184.924357455401
52746,mp-1222201,Mg3Fe(SiO4)2,3.2669,"{'Mg': 6.0, 'Fe': 2.0, 'Si': 4.0, 'O': 16.0}",28,9.00114285720122E-05,"['Fe', 'Mg', 'O', 'Si']",305.4893767175
52802,mp-18721,Mn2P2O7,3.2709,"{'O': 7.0, 'P': 2.0, 'Mn': 2.0}",11,0,"['Mn', 'P', 'O']",131.291851522444
52805,mp-19212,Rb2MoO4,4.4507,"{'O': 8.0, 'Rb': 4.0, 'Mo': 2.0}",14,0,"['Mo', 'O', 'Rb']",301.173211607162
52966,mp-8290,BaSnF6,4.9436,"{'F': 6.0, 'Sn': 1.0, 'Ba': 1.0}",8,0,"['Ba', 'Sn', 'F']",125.99021314256
53015,mp-10662,K2CO3,3.2835,"{'C': 2.0, 'O': 6.0, 'K': 4.0}",12,0.006958660000001,"['K', 'C', 'O']",207.237462765396
53089,mp-11917,Mg(BeN)2,4.0657,"{'Be': 2.0, 'N': 2.0, 'Mg': 1.0}",5,0,"['Mg', 'Be', 'N']",38.6080892645462
53092,mp-1193269,Li2SiF6,8.0813,"{'Li': 6.0, 'Si': 3.0, 'F': 18.0}",27,0,"['F', 'Li', 'Si']",279.628374749697
53170,mp-1213254,CsGd(WO4)2,3.1041,"{'Cs': 2.0, 'Gd': 2.0, 'W': 4.0, 'O': 16.0}",24,0,"['Cs', 'Gd', 'O', 'W']",347.107296413245
53174,mp-1213993,CaAs2F12,4.8261,"{'Ca': 1.0, 'As': 2.0, 'F': 12.0}",15,0,"['As', 'Ca', 'F']",225.028520961044
53175,mp-1214228,BaZr(SiO3)3,4.6385,"{'Ba': 2.0, 'Zr': 2.0, 'Si': 6.0, 'O': 18.0}",28,0,"['Ba', 'O', 'Si', 'Zr']",417.144653089996
53262,mp-1228436,Al3GaN4,3.4101,"{'Al': 3.0, 'Ga': 1.0, 'N': 4.0}",8,0.00517758625,"['Al', 'Ga', 'N']",87.1572746464602
53329,mp-28514,Ba(BrO3)2,4.3575,"{'Ba': 2.0, 'Br': 4.0, 'O': 12.0}",18,0.006408863888889,"['Ba', 'Br', 'O']",344.947044351746
53332,mp-30990,K6Si2O7,3.5056,"{'O': 14.0, 'Si': 4.0, 'K': 12.0}",30,0,"['K', 'O', 'Si']",531.965161391011
53333,mp-4534,NaCO2,3.3888,"{'C': 4.0, 'O': 8.0, 'Na': 4.0}",16,0.008322058098959,"['C', 'Na', 'O']",198.996269654579
53334,mp-5040,CaTe2O5,3.3702,"{'O': 20.0, 'Ca': 4.0, 'Te': 8.0}",32,0,"['Ca', 'O', 'Te']",575.224057256834
53358,mp-558347,K4Ba(SiO3)3,4.2286,"{'K': 8.0, 'Ba': 2.0, 'Si': 6.0, 'O': 18.0}",34,0.001943391960791,"['Ba', 'K', 'O', 'Si']",563.72652350771
53398,mp-7205,LiInSiO4,3.0287,"{'Li': 4.0, 'O': 16.0, 'Si': 4.0, 'In': 4.0}",28,0,"['In', 'Li', 'O', 'Si']",321.619914224311
53489,mp-989520,Rb2NaBiCl6,3.7526,"{'Rb': 2.0, 'Na': 1.0, 'Bi': 1.0, 'Cl': 6.0}",10,0,"['Bi', 'Cl', 'Na', 'Rb']",327.562295670075
53638,mp-1208619,SrLiGaF6,6.3511,"{'Sr': 2.0, 'Li': 2.0, 'Ga': 2.0, 'F': 12.0}",18,0,"['F', 'Ga', 'Li', 'Sr']",248.149843593578
53660,mp-1214404,BaNiP2O7,3.6337,"{'Ba': 2.0, 'Ni': 2.0, 'P': 4.0, 'O': 14.0}",22,0,"['Ba', 'Ni', 'O', 'P']",293.277426984633
53680,mp-1223394,KTaTiO5,3.037,"{'K': 4.0, 'Ta': 4.0, 'Ti': 4.0, 'O': 20.0}",32,0.001202513854201,"['K', 'O', 'Ta', 'Ti']",470.583339935088
53701,mp-1228944,CsRbMnF6,3.2417,"{'Cs': 2.0, 'Rb': 2.0, 'Mn': 2.0, 'F': 12.0}",18,0.005261557222222,"['Cs', 'F', 'Mn', 'Rb']",355.663035387545
53768,mp-23295,RbCl,4.8393,"{'Cl': 1.0, 'Rb': 1.0}",2,0,"['Rb', 'Cl']",75.1479268794492
53787,mp-27831,Rb2ZrCl6,3.562,"{'Cl': 6.0, 'Rb': 2.0, 'Zr': 1.0}",9,0,"['Rb', 'Zr', 'Cl']",285.123171611063
53791,mp-2843,SnF2,3.2925,"{'F': 16.0, 'Sn': 8.0}",24,0.001868605833334,"['F', 'Sn']",464.034080231019
53799,mp-3070,Na2CO3,3.844,"{'C': 2.0, 'O': 6.0, 'Na': 4.0}",12,0.004616913819446,"['C', 'Na', 'O']",143.807870709918
53812,mp-5285,SrSO4,5.9087,"{'Sr': 4.0, 'S': 4.0, 'O': 16.0}",24,0,"['Sr', 'S', 'O']",329.99301857188
53828,mp-555257,Mg2BiPO6,3.6219,"{'Mg': 4.0, 'Bi': 2.0, 'P': 2.0, 'O': 12.0}",20,0.000789102749998,"['Bi', 'Mg', 'O', 'P']",255.190359027952
53833,mp-561013,Ga2PbO4,3.4226,"{'Ga': 4.0, 'Pb': 2.0, 'O': 8.0}",14,7.5071428540241E-07,"['Ga', 'O', 'Pb']",221.315768872034
53841,mp-568536,BaI2,3.0499,"{'Ba': 3.0, 'I': 6.0}",9,0.005665307083333,"['Ba', 'I']",391.880467911026
53848,mp-5914,Li3BN2,3.3011,"{'Li': 12.0, 'B': 4.0, 'N': 8.0}",24,0.003096364166667,"['B', 'Li', 'N']",228.06243008212
53898,mp-754363,Ba2HfO4,3.449,"{'Ba': 2.0, 'Hf': 1.0, 'O': 4.0}",7,0,"['Ba', 'Hf', 'O']",119.838576518889
53990,mp-998599,KCaBr3,4.4047,"{'K': 2.0, 'Ca': 2.0, 'Br': 6.0}",10,0,"['Br', 'Ca', 'K']",337.439525676937
54003,mp-1019551,BaNa2Mg(PO4)2,4.8715,"{'Ba': 1.0, 'Na': 2.0, 'Mg': 1.0, 'P': 2.0, 'O': 8.0}",14,0.00491418642857,"['Ba', 'Na', 'Mg', 'P', 'O']",178.322717471787
54037,mp-1095229,YNbO4,3.7494,"{'Y': 2.0, 'Nb': 2.0, 'O': 8.0}",12,0,"['Nb', 'O', 'Y']",155.233768495093