,task_id,pretty_formula,band_gap,unit_cell_formula,nsites,e_above_hull,elements,volume
39721,mp-1219589,RbCrNiF6,3.0365,"{'Rb': 2.0, 'Cr': 2.0, 'Ni': 2.0, 'F': 12.0}",18,0,"['Cr', 'F', 'Ni', 'Rb']",281.744770174207
39730,mp-1221079,NaCaYCdF8,5.0607,"{'Na': 1.0, 'Ca': 1.0, 'Y': 1.0, 'Cd': 1.0, 'F': 8.0}",12,0.001491422916666,"['Ca', 'Cd', 'F', 'Na', 'Y']",165.699217368172
39792,mp-21332,LiGdO2,3.2816,"{'Li': 4.0, 'O': 8.0, 'Gd': 4.0}",16,0,"['Gd', 'Li', 'O']",211.249556308792
39839,mp-555318,K2Zn(SiO3)2,3.924,"{'K': 4.0, 'Zn': 2.0, 'Si': 4.0, 'O': 12.0}",22,0,"['K', 'O', 'Si', 'Zn']",327.418809348262
39841,mp-555933,Na2P2PbO7,4.2884,"{'Na': 4.0, 'P': 4.0, 'Pb': 2.0, 'O': 14.0}",24,0,"['Na', 'O', 'P', 'Pb']",331.959384945354
39858,mp-568937,Cs3Y2Br9,4.0444,"{'Cs': 6.0, 'Y': 4.0, 'Br': 18.0}",28,0,"['Br', 'Cs', 'Y']",1137.27913242341
39978,mp-9480,KAlSiO4,4.5011,"{'O': 8.0, 'Al': 2.0, 'Si': 2.0, 'K': 2.0}",14,0.00224395625,"['Al', 'K', 'O', 'Si']",209.803459979439
39985,mp-981,SrF2,6.7528,"{'F': 2.0, 'Sr': 1.0}",3,0,"['Sr', 'F']",50.459580827677
40139,mp-1213379,CsEr(WO4)2,3.3416,"{'Cs': 2.0, 'Er': 2.0, 'W': 4.0, 'O': 16.0}",24,0.001108511249971,"['Cs', 'Er', 'O', 'W']",338.973748087126
40187,mp-1225475,ErSc(BO3)2,4.5571,"{'Er': 1.0, 'Sc': 1.0, 'B': 2.0, 'O': 6.0}",10,0.009651144833333,"['B', 'Er', 'O', 'Sc']",110.743908235082
40249,mp-17208,K2Li14Zr3O14,4.2813,"{'Li': 14.0, 'O': 14.0, 'K': 2.0, 'Zr': 3.0}",33,0,"['K', 'Li', 'O', 'Zr']",367.800753473854
40250,mp-17250,K3SbO3,3.2396,"{'O': 12.0, 'K': 12.0, 'Sb': 4.0}",28,0,"['K', 'O', 'Sb']",620.665339987685
40269,mp-20463,CaPbF6,3.4728,"{'F': 6.0, 'Ca': 1.0, 'Pb': 1.0}",8,0,"['Ca', 'Pb', 'F']",165.992209726348
40281,mp-22135,Na3FePCO7,3.7631,"{'C': 2.0, 'O': 14.0, 'Na': 6.0, 'P': 2.0, 'Fe': 2.0}",26,0,"['C', 'Fe', 'Na', 'O', 'P']",317.477038630858
40308,mp-27356,AsO2,3.3603,"{'O': 16.0, 'As': 8.0}",24,0.002175681874999,"['As', 'O']",359.221825904023
40350,mp-555003,WF6,5.3735,"{'F': 24.0, 'W': 4.0}",28,0,"['F', 'W']",486.524022449459
40445,mp-769028,Si3Sb2O9,4.1105,"{'Si': 6.0, 'Sb': 4.0, 'O': 18.0}",28,0.009979866249997,"['O', 'Sb', 'Si']",400.221050873347
40475,mp-8248,Rb2TeO3,3.6011,"{'O': 6.0, 'Rb': 4.0, 'Te': 2.0}",12,0,"['O', 'Rb', 'Te']",298.332199992639
40513,mp-1029920,Y2(CN2)3,4.0364,"{'Y': 4.0, 'C': 6.0, 'N': 12.0}",22,0,"['C', 'N', 'Y']",366.179334729178
40662,mp-1213834,Cs3Sc2Br9,3.0303,"{'Cs': 6.0, 'Sc': 4.0, 'Br': 18.0}",28,0,"['Br', 'Cs', 'Sc']",1092.24181241359
40746,mp-23046,SrIF,4.3112,"{'F': 2.0, 'Sr': 2.0, 'I': 2.0}",6,0,"['Sr', 'I', 'F']",171.983350506425
40778,mp-31250,BiBO3,3.0215,"{'B': 4.0, 'O': 12.0, 'Bi': 4.0}",20,0,"['B', 'Bi', 'O']",270.902910981069
40822,mp-555302,CsFeF3,3.2801,"{'F': 18.0, 'Fe': 6.0, 'Cs': 6.0}",30,0.006120079416667,"['Cs', 'F', 'Fe']",510.425856919224
40825,mp-556264,KRb2CrF6,4.134,"{'F': 6.0, 'K': 1.0, 'Cr': 1.0, 'Rb': 2.0}",10,0.000370801400001,"['K', 'Rb', 'Cr', 'F']",182.444525563736
40831,mp-558155,KFeF4,3.109,"{'K': 2.0, 'Fe': 2.0, 'F': 8.0}",12,0.000505000208333,"['F', 'Fe', 'K']",191.847487872027
40855,mp-570259,MgCl2,5.5715,"{'Mg': 1.0, 'Cl': 2.0}",3,0.001597383333333,"['Mg', 'Cl']",75.1136252971805
40865,mp-616461,Na2ZnCl4,4.5763,"{'Na': 8.0, 'Zn': 4.0, 'Cl': 16.0}",28,0,"['Cl', 'Na', 'Zn']",734.172465099543
41114,mp-1194399,CaCO3,4.9095,"{'Ca': 6.0, 'C': 6.0, 'O': 18.0}",30,0.008583975333334,"['C', 'Ca', 'O']",389.315231835814
41145,mp-1207551,YbMoO4,3.355,"{'Yb': 2.0, 'Mo': 2.0, 'O': 8.0}",12,0,"['Mo', 'O', 'Yb']",155.305620060964
41164,mp-1214020,Ca4YB3O10,4.4416,"{'Ca': 4.0, 'Y': 1.0, 'B': 3.0, 'O': 10.0}",18,0,"['B', 'Ca', 'O', 'Y']",229.295747162954
41165,mp-1214135,Ca2TaInO6,3.8543,"{'Ca': 4.0, 'Ta': 2.0, 'In': 2.0, 'O': 12.0}",20,0.000590817249999,"['Ca', 'In', 'O', 'Ta']",257.930201050857
41197,mp-1228775,Ba3WO6,3.1474,"{'Ba': 6.0, 'W': 2.0, 'O': 12.0}",20,0,"['Ba', 'O', 'W']",365.002855374517
41244,mp-27911,BiAsO4,3.1807,"{'O': 16.0, 'As': 4.0, 'Bi': 4.0}",24,0,"['As', 'Bi', 'O']",336.019336519956
41426,mp-776388,NaNiPO4,3.5959,"{'Na': 4.0, 'Ni': 4.0, 'P': 4.0, 'O': 16.0}",28,0,"['Na', 'Ni', 'O', 'P']",340.331736267702
41446,mp-8042,ZrGeO4,3.7286,"{'O': 8.0, 'Ge': 2.0, 'Zr': 2.0}",12,0,"['Zr', 'Ge', 'O']",130.224371099937
41472,mp-8724,K2TeO3,3.5354,"{'O': 6.0, 'K': 4.0, 'Te': 2.0}",12,0,"['K', 'Te', 'O']",255.929803655788
41785,mp-17037,Rb2Ti(SiO3)3,3.1412,"{'O': 18.0, 'Si': 6.0, 'Ti': 2.0, 'Rb': 4.0}",30,0,"['O', 'Rb', 'Si', 'Ti']",429.055776566968
41787,mp-17889,KNa2(PO3)3,5.0468,"{'O': 18.0, 'Na': 4.0, 'P': 6.0, 'K': 2.0}",30,0.00353959861111,"['K', 'Na', 'O', 'P']",423.8417926101
41800,mp-23184,BCl3,4.7166,"{'B': 2.0, 'Cl': 6.0}",8,0,"['B', 'Cl']",278.214425240091
41899,mp-697670,KAlSi3O8,4.9298,"{'K': 2.0, 'Al': 2.0, 'Si': 6.0, 'O': 16.0}",26,0,"['Al', 'K', 'O', 'Si']",374.899664464502
41965,mp-8188,KScO2,3.6247,"{'O': 2.0, 'K': 1.0, 'Sc': 1.0}",4,0,"['K', 'Sc', 'O']",56.2876220524531
42033,mp-1079630,Ba2TaInO6,3.9467,"{'Ba': 2.0, 'Ta': 1.0, 'In': 1.0, 'O': 6.0}",10,0,"['Ba', 'In', 'O', 'Ta']",148.022083642208
42123,mp-1191085,LiY(WO4)2,3.7859,"{'Li': 2.0, 'Y': 2.0, 'W': 4.0, 'O': 16.0}",24,0,"['Li', 'O', 'W', 'Y']",306.142179745863
42134,mp-1194338,NaBOF2,6.2946,"{'Na': 6.0, 'B': 6.0, 'O': 6.0, 'F': 12.0}",30,0,"['B', 'F', 'Na', 'O']",359.616045586683
42332,mp-30164,CsSn2Cl5,3.0665,"{'Cl': 10.0, 'Sn': 4.0, 'Cs': 2.0}",16,0,"['Cl', 'Cs', 'Sn']",526.153751836766
42334,mp-3081,BeAl2O4,6.1181,"{'Be': 4.0, 'O': 16.0, 'Al': 8.0}",28,0,"['Be', 'Al', 'O']",234.291119206386
42348,mp-510367,Fe2P2O7,3.6944,"{'O': 14.0, 'P': 4.0, 'Fe': 4.0}",22,0,"['Fe', 'O', 'P']",253.211533508328
42393,mp-6434,RbAlSiO4,4.3806,"{'O': 16.0, 'Al': 4.0, 'Si': 4.0, 'Rb': 4.0}",28,0,"['Al', 'O', 'Rb', 'Si']",447.790564915488
42496,mp-9819,RbAsF6,4.9784,"{'F': 6.0, 'As': 1.0, 'Rb': 1.0}",8,0,"['Rb', 'As', 'F']",133.420951555496
42534,mp-1078300,ScF3,6.1152,"{'Sc': 2.0, 'F': 6.0}",8,0.00022247875,"['F', 'Sc']",133.983187466494
42640,mp-1208634,SrLiCrF6,4.1327,"{'Sr': 2.0, 'Li': 2.0, 'Cr': 2.0, 'F': 12.0}",18,0,"['Cr', 'F', 'Li', 'Sr']",254.56896655188
42705,mp-1220682,NaYF4,6.8204,"{'Na': 1.0, 'Y': 1.0, 'F': 4.0}",6,0.001129130833331,"['F', 'Na', 'Y']",81.9229313399777
42712,mp-1221428,Na2Al2B2O7,4.3447,"{'Na': 4.0, 'Al': 4.0, 'B': 4.0, 'O': 14.0}",26,6.11792307676495E-05,"['Al', 'B', 'Na', 'O']",320.268557939796
42750,mp-1227994,BaAlSi5N7O2,3.9027,"{'Ba': 1.0, 'Al': 1.0, 'Si': 5.0, 'N': 7.0, 'O': 2.0}",16,0,"['Al', 'Ba', 'N', 'O', 'Si']",199.992710624539
42799,mp-15840,BaBPO5,5.4963,"{'B': 3.0, 'O': 15.0, 'P': 3.0, 'Ba': 3.0}",24,1.00500000055348E-06,"['B', 'Ba', 'O', 'P']",319.614818744115
42857,mp-556966,KSrVO4,3.8427,"{'K': 4.0, 'Sr': 4.0, 'V': 4.0, 'O': 16.0}",28,0,"['K', 'O', 'Sr', 'V']",452.556165083944
42874,mp-572332,Cs2Sb2OF10,3.8706,"{'Cs': 4.0, 'Sb': 4.0, 'O': 2.0, 'F': 20.0}",30,0.002971589944444,"['Cs', 'F', 'O', 'Sb']",582.493046928555
42933,mp-766022,Li4FeNi3(PO4)4,3.0143,"{'Li': 4.0, 'Fe': 1.0, 'Ni': 3.0, 'P': 4.0, 'O': 16.0}",28,0.002526718303574,"['Fe', 'Li', 'Ni', 'O', 'P']",287.971231106893
42937,mp-769399,BaTa4O11,3.4624,"{'Ba': 2.0, 'Ta': 8.0, 'O': 22.0}",32,0.002558540156251,"['Ba', 'O', 'Ta']",442.410947887805
42940,mp-7709,ZnF2,3.5618,"{'F': 8.0, 'Zn': 4.0}",12,0.005717129166667,"['Zn', 'F']",144.529325076072
43045,mp-1101340,SrCaI4,3.8183,"{'Sr': 1.0, 'Ca': 1.0, 'I': 4.0}",6,0,"['Ca', 'I', 'Sr']",285.793757802808
43095,mp-1193109,NaCaAsO4,3.5788,"{'Na': 4.0, 'Ca': 4.0, 'As': 4.0, 'O': 16.0}",28,0,"['As', 'Ca', 'Na', 'O']",417.405033142194
43184,mp-1225930,CsAlNiF6,5.0895,"{'Cs': 2.0, 'Al': 2.0, 'Ni': 2.0, 'F': 12.0}",18,0,"['Al', 'Cs', 'F', 'Ni']",268.084198532055
43227,mp-18043,Sr6YSc(BO3)6,4.4903,"{'B': 6.0, 'O': 18.0, 'Sc': 1.0, 'Sr': 6.0, 'Y': 1.0}",32,0,"['B', 'O', 'Sc', 'Sr', 'Y']",418.835282063556
43232,mp-19261,Na3MnPCO7,3.3063,"{'C': 2.0, 'O': 14.0, 'Na': 6.0, 'P': 2.0, 'Mn': 2.0}",26,0,"['C', 'Mn', 'Na', 'O', 'P']",324.557029791069
43269,mp-29108,MnAs2F12,3.9706,"{'F': 24.0, 'Mn': 2.0, 'As': 4.0}",30,0,"['As', 'F', 'Mn']",460.949005200727
43289,mp-3721,SrHfO3,4.0578,"{'O': 6.0, 'Sr': 2.0, 'Hf': 2.0}",10,0.004721671999999,"['Sr', 'Hf', 'O']",139.245325923826
43304,mp-5116,K6Ge2O7,3.0731,"{'O': 14.0, 'K': 12.0, 'Ge': 4.0}",30,0,"['Ge', 'K', 'O']",573.696880883293
43336,mp-558162,RbP(OF)2,5.1966,"{'Rb': 4.0, 'P': 4.0, 'O': 8.0, 'F': 8.0}",24,0,"['F', 'O', 'P', 'Rb']",434.708618932176
43389,mp-6368,CsSO2F,4.4106,"{'O': 8.0, 'F': 4.0, 'S': 4.0, 'Cs': 4.0}",20,0,"['Cs', 'F', 'O', 'S']",455.246696244142
43477,mp-8773,K3CO3F,3.8463,"{'C': 2.0, 'O': 6.0, 'F': 2.0, 'K': 6.0}",16,0.006951763125,"['C', 'F', 'K', 'O']",273.16977741336
43634,mp-1209478,Rb2Li3GaO4,3.3517,"{'Rb': 4.0, 'Li': 6.0, 'Ga': 2.0, 'O': 8.0}",20,0,"['Ga', 'Li', 'O', 'Rb']",287.874766731098
43713,mp-15349,Li2GeO3,3.568,"{'Li': 4.0, 'O': 6.0, 'Ge': 2.0}",12,0,"['Ge', 'Li', 'O']",133.178670413222
43747,mp-29751,CsMgI3,3.3159,"{'Cs': 2.0, 'Mg': 2.0, 'I': 6.0}",10,0,"['Cs', 'Mg', 'I']",432.772273537234
43756,mp-3775,Na2SiF6,6.9889,"{'F': 18.0, 'Na': 6.0, 'Si': 3.0}",27,0,"['F', 'Na', 'Si']",360.38534606547
43824,mp-6481,Na2ZnSi3O8,3.9452,"{'O': 16.0, 'Na': 4.0, 'Si': 6.0, 'Zn': 2.0}",28,0,"['Na', 'O', 'Si', 'Zn']",373.110059797719
43839,mp-6810,K2Ti(SiO3)3,3.2039,"{'O': 18.0, 'Si': 6.0, 'K': 4.0, 'Ti': 2.0}",30,0.005795868333362,"['K', 'O', 'Si', 'Ti']",412.004837862532
43897,mp-756268,Li2FeNi(PO4)2,3.0207,"{'Li': 4.0, 'Fe': 2.0, 'Ni': 2.0, 'P': 4.0, 'O': 16.0}",28,0.002178591250001,"['Fe', 'Li', 'Ni', 'O', 'P']",291.064292482948
44007,mp-1019509,B2S2O9,6.6792,"{'B': 2.0, 'S': 2.0, 'O': 9.0}",13,0,"['B', 'S', 'O']",148.514431935199
44154,mp-1209111,RbSrCl3,4.8963,"{'Rb': 2.0, 'Sr': 2.0, 'Cl': 6.0}",10,0.008961873,"['Cl', 'Rb', 'Sr']",352.860153808572
44155,mp-1209248,RbAl(MoO4)2,3.8815,"{'Rb': 1.0, 'Al': 1.0, 'Mo': 2.0, 'O': 8.0}",12,0,"['Al', 'Mo', 'O', 'Rb']",206.948016531371
44233,mp-13946,Rb2ZrF6,6.6345,"{'F': 6.0, 'Rb': 2.0, 'Zr': 1.0}",9,0,"['Rb', 'Zr', 'F']",167.668730581757
44281,mp-30300,Cs3As5O9,3.1413,"{'O': 9.0, 'As': 5.0, 'Cs': 3.0}",17,0,"['As', 'Cs', 'O']",407.527935017806
44288,mp-3872,Mg(AlS2)2,3.0647,"{'Mg': 4.0, 'Al': 8.0, 'S': 16.0}",28,0,"['Al', 'Mg', 'S']",547.374694456542
44300,mp-555271,Ba2Zn2ClF7,4.3543,"{'Ba': 4.0, 'Zn': 4.0, 'Cl': 2.0, 'F': 14.0}",24,0.002984309583334,"['Ba', 'Cl', 'F', 'Zn']",400.018785387319
44303,mp-556185,RbNaTiO3,3.4609,"{'Rb': 2.0, 'Na': 2.0, 'Ti': 2.0, 'O': 6.0}",12,0,"['Na', 'O', 'Rb', 'Ti']",185.8091948171
44337,mp-6507,Na2Zn2Si2O7,3.3241,"{'O': 14.0, 'Na': 4.0, 'Si': 4.0, 'Zn': 4.0}",26,0,"['Na', 'O', 'Si', 'Zn']",334.969391823189
44496,mvc-14834,CaTiF6,4.6756,"{'Ca': 1.0, 'Ti': 1.0, 'F': 6.0}",8,0.008818596249999,"['Ca', 'F', 'Ti']",131.426432760232
44591,mp-1111079,K3ScF6,6.163,"{'K': 3.0, 'Sc': 1.0, 'F': 6.0}",10,0,"['F', 'K', 'Sc']",187.998981625762
44603,mp-1120731,NaVF6,3.2534,"{'Na': 4.0, 'V': 4.0, 'F': 24.0}",32,0,"['F', 'Na', 'V']",462.101363897135
44628,mp-1178405,Cs2HfO3,3.8301,"{'Cs': 4.0, 'Hf': 2.0, 'O': 6.0}",12,0,"['Cs', 'Hf', 'O']",266.637761177218
44683,mp-1189091,K3B6ClO10,5.3731,"{'K': 3.0, 'B': 6.0, 'Cl': 1.0, 'O': 10.0}",20,0,"['B', 'Cl', 'K', 'O']",271.716976608646
44718,mp-1211126,LiSc(WO4)2,3.561,"{'Li': 2.0, 'Sc': 2.0, 'W': 4.0, 'O': 16.0}",24,0,"['Li', 'O', 'Sc', 'W']",284.63725708736
44795,mp-23225,BBr3,3.8285,"{'B': 2.0, 'Br': 6.0}",8,0,"['B', 'Br']",349.831971028284
44811,mp-3285,Na2Ta4O11,3.4658,"{'O': 22.0, 'Na': 4.0, 'Ta': 8.0}",34,0,"['Na', 'O', 'Ta']",421.036741321124
44817,mp-3822,SrCO3,4.4256,"{'C': 4.0, 'O': 12.0, 'Sr': 4.0}",20,0,"['Sr', 'C', 'O']",269.688155180364
44850,mp-560645,Ca2NbInO6,3.4348,"{'Ca': 4.0, 'Nb': 2.0, 'In': 2.0, 'O': 12.0}",20,0.006611898249997,"['Ca', 'In', 'Nb', 'O']",259.367187910161
44955,mp-777790,Li4MnFe3(BO3)4,3.1295,"{'Li': 4.0, 'Mn': 1.0, 'Fe': 3.0, 'B': 4.0, 'O': 12.0}",24,0.004921196319446,"['B', 'Fe', 'Li', 'Mn', 'O']",251.724796406928
44974,mp-8876,Ca4Al6SO12,3.7267,"{'O': 12.0, 'Al': 6.0, 'S': 1.0, 'Ca': 4.0}",23,0,"['Al', 'Ca', 'O', 'S']",376.369275093806
44978,mp-9309,CsTa(BO3)2,3.4027,"{'B': 4.0, 'O': 12.0, 'Cs': 2.0, 'Ta': 2.0}",20,0,"['B', 'Cs', 'O', 'Ta']",301.347121920694
45041,mp-1096810,Al2ZnS4,3.1186,"{'Al': 2.0, 'Zn': 1.0, 'S': 4.0}",7,0.005586050714286,"['Al', 'S', 'Zn']",148.902425696707
45060,mp-1111927,K2LiCrF6,3.8877,"{'K': 2.0, 'Li': 1.0, 'Cr': 1.0, 'F': 6.0}",10,0,"['Cr', 'F', 'K', 'Li']",133.67028823292
45106,mp-1189625,Cs2LiScCl6,3.8134,"{'Cs': 4.0, 'Li': 2.0, 'Sc': 2.0, 'Cl': 12.0}",20,0,"['Cl', 'Cs', 'Li', 'Sc']",585.149923948638
45109,mp-1190296,RbMgCO3F,4.6997,"{'Rb': 3.0, 'Mg': 3.0, 'C': 3.0, 'O': 9.0, 'F': 3.0}",21,0,"['C', 'F', 'Mg', 'O', 'Rb']",292.770145412455
45119,mp-1193711,Cs2HgCl4,3.0498,"{'Cs': 8.0, 'Hg': 4.0, 'Cl': 16.0}",28,0.006437815535714,"['Cl', 'Cs', 'Hg']",1095.73106632639
45189,mp-1210184,Na6MgCl8,5.1123,"{'Na': 6.0, 'Mg': 1.0, 'Cl': 8.0}",15,0,"['Cl', 'Mg', 'Na']",364.961677898655
45200,mp-1213179,CsGa(SO4)2,4.0299,"{'Cs': 1.0, 'Ga': 1.0, 'S': 2.0, 'O': 8.0}",12,0,"['Cs', 'Ga', 'O', 'S']",185.620365176334
45236,mp-1220908,NaSO3F,5.0647,"{'Na': 2.0, 'S': 2.0, 'O': 6.0, 'F': 2.0}",12,0,"['F', 'Na', 'O', 'S']",182.386620928552
45336,mp-3372,Rb2SO4,4.9943,"{'O': 16.0, 'S': 4.0, 'Rb': 8.0}",28,0,"['Rb', 'S', 'O']",516.546394323533
45340,mp-3626,SrZrO3,3.4179,"{'O': 12.0, 'Sr': 4.0, 'Zr': 4.0}",20,0.008162529,"['O', 'Sr', 'Zr']",287.839770984763
45365,mp-558237,NaZnPO4,3.8292,"{'Na': 4.0, 'Zn': 4.0, 'P': 4.0, 'O': 16.0}",28,0,"['Na', 'O', 'P', 'Zn']",399.112671500055
45391,mp-672233,N2,6.5699,{'N': 4.0},4,8.88178419700125E-16,['N'],94.4387078537799
45453,mp-7791,Li2GeF6,5.7409,"{'Li': 4.0, 'F': 12.0, 'Ge': 2.0}",18,0,"['F', 'Ge', 'Li']",195.114164060472
45459,mp-8449,Rb2Li2SiO4,3.8479,"{'Li': 4.0, 'O': 8.0, 'Si': 2.0, 'Rb': 4.0}",18,0,"['Li', 'O', 'Rb', 'Si']",269.153597594067
45690,mp-1227722,BaSr4Cl10,5.2544,"{'Ba': 1.0, 'Sr': 4.0, 'Cl': 10.0}",15,0.005051900000001,"['Ba', 'Cl', 'Sr']",453.960441988728
45762,mp-27197,Na4As2O7,3.1916,"{'Na': 8.0, 'As': 4.0, 'O': 14.0}",26,0,"['As', 'Na', 'O']",389.245001842867
45780,mp-30056,CsCaBr3,4.4044,"{'Ca': 1.0, 'Br': 3.0, 'Cs': 1.0}",5,0,"['Br', 'Ca', 'Cs']",192.360662395467
45792,mp-3281,Al5BO9,4.9361,"{'B': 2.0, 'O': 18.0, 'Al': 10.0}",30,0,"['Al', 'B', 'O']",337.276690738119
45794,mp-37614,Al2NiO4,3.4759,"{'Al': 4.0, 'Ni': 2.0, 'O': 8.0}",14,0,"['Al', 'Ni', 'O']",133.11099359872
45818,mp-541827,Ba2Zn7F18,4.0533,"{'Ba': 2.0, 'Zn': 7.0, 'F': 18.0}",27,0,"['Ba', 'F', 'Zn']",362.260357946883
45859,mp-567907,P3N5,3.5819,"{'P': 6.0, 'N': 10.0}",16,0,"['P', 'N']",200.914118802524
46028,mp-1078748,Sr2TaInO6,3.7897,"{'Sr': 2.0, 'Ta': 1.0, 'In': 1.0, 'O': 6.0}",10,0,"['In', 'O', 'Sr', 'Ta']",138.398851181763
46161,mp-1214672,Ba2Mg2MnF10,4.4329,"{'Ba': 4.0, 'Mg': 4.0, 'Mn': 2.0, 'F': 20.0}",30,0.006662009666667,"['Ba', 'F', 'Mg', 'Mn']",432.904092361443
46189,mp-1222080,MgCd(CO3)2,3.5065,"{'Mg': 1.0, 'Cd': 1.0, 'C': 2.0, 'O': 6.0}",10,0,"['C', 'Cd', 'Mg', 'O']",107.403411003669
46190,mp-1222215,Mg3Fe3(PO4)4,3.5681,"{'Mg': 3.0, 'Fe': 3.0, 'P': 4.0, 'O': 16.0}",26,0.002917021153845,"['Fe', 'Mg', 'O', 'P']",336.912201027251
46207,mp-1227157,Ca5Bi6(Cl3O2)4,3.0901,"{'Ca': 5.0, 'Bi': 6.0, 'Cl': 12.0, 'O': 8.0}",31,0,"['Bi', 'Ca', 'Cl', 'O']",693.005089830298
46224,mp-13150,BN,4.4021,"{'B': 1.0, 'N': 1.0}",2,0.003411232500001,"['B', 'N']",20.0020866171902
46239,mp-18803,Na2WO4,4.7521,"{'O': 8.0, 'Na': 4.0, 'W': 2.0}",14,0,"['Na', 'W', 'O']",199.860881757504
46287,mp-4661,ScOF,4.4825,"{'O': 4.0, 'F': 4.0, 'Sc': 4.0}",12,0,"['Sc', 'O', 'F']",141.475756838138
46300,mp-555983,Er2SiO5,4.7541,"{'Er': 8.0, 'Si': 4.0, 'O': 20.0}",32,0,"['Er', 'O', 'Si']",427.758515256481
46311,mp-559118,CsTa(PO4)2,3.3884,"{'Cs': 1.0, 'Ta': 1.0, 'P': 2.0, 'O': 8.0}",12,0,"['Cs', 'O', 'P', 'Ta']",210.650081293229
46323,mp-561000,Cs4KLiFe2F12,4.0828,"{'Cs': 4.0, 'K': 1.0, 'Li': 1.0, 'Fe': 2.0, 'F': 12.0}",20,0,"['Cs', 'F', 'Fe', 'K', 'Li']",378.45317349685
46358,mp-608014,K2Ge2Pb2O7,3.2001,"{'K': 2.0, 'Ge': 2.0, 'Pb': 2.0, 'O': 7.0}",13,0,"['Ge', 'K', 'O', 'Pb']",243.254373075573
46385,mp-684017,Y2Te4O11,3.2398,"{'Y': 4.0, 'Te': 8.0, 'O': 22.0}",34,0.001355566437909,"['O', 'Te', 'Y']",509.86244672323
46463,mp-7849,AlAsO4,4.2769,"{'O': 4.0, 'Al': 1.0, 'As': 1.0}",6,0,"['Al', 'As', 'O']",101.943673997805
46495,mvc-15835,ZnWF6,3.7143,"{'Zn': 1.0, 'W': 1.0, 'F': 6.0}",8,0,"['Zn', 'W', 'F']",123.197547073035
46499,mvc-5422,CaVP2O7,3.1152,"{'Ca': 2.0, 'V': 2.0, 'P': 4.0, 'O': 14.0}",22,0.002389157670455,"['Ca', 'O', 'P', 'V']",271.571114243459
46529,mp-1079609,Bi(BO2)3,4.0756,"{'Bi': 1.0, 'B': 3.0, 'O': 6.0}",10,0.0063336145,"['B', 'Bi', 'O']",118.250049013452
46593,mp-1190390,Ba(ClO4)2,5.4191,"{'Ba': 2.0, 'Cl': 4.0, 'O': 16.0}",22,0,"['Ba', 'Cl', 'O']",323.453988308112
46639,mp-1211012,LiYGeO4,3.8074,"{'Li': 4.0, 'Y': 4.0, 'Ge': 4.0, 'O': 16.0}",28,0.009073480178571,"['Ge', 'Li', 'O', 'Y']",365.149135843345
46713,mp-19072,Si(NiO2)2,3.6153,"{'O': 16.0, 'Si': 4.0, 'Ni': 8.0}",28,0,"['Ni', 'O', 'Si']",291.962080652298
46717,mp-20678,NaIn(WO4)2,3.4859,"{'O': 16.0, 'Na': 2.0, 'In': 2.0, 'W': 4.0}",24,0,"['In', 'Na', 'O', 'W']",313.405420586106
46729,mp-22889,ZnCl2,4.04,"{'Cl': 8.0, 'Zn': 4.0}",12,0.000801453333334,"['Zn', 'Cl']",338.431674756933
46738,mp-27315,CaTiF6,4.6109,"{'F': 6.0, 'Ca': 1.0, 'Ti': 1.0}",8,0,"['Ca', 'Ti', 'F']",144.548651823888
46740,mp-27987,BrF5,3.4387,"{'F': 10.0, 'Br': 2.0}",12,0,"['Br', 'F']",201.898561072672
46748,mp-31212,K2MgF4,6.4096,"{'F': 4.0, 'Mg': 1.0, 'K': 2.0}",7,0,"['K', 'Mg', 'F']",108.691964667173
46768,mp-541581,KSO3,4.9636,"{'K': 6.0, 'S': 6.0, 'O': 18.0}",30,0.00339029127174,"['K', 'O', 'S']",549.421866541319
46778,mp-554168,KRb2MoF6,3.6937,"{'K': 1.0, 'Rb': 2.0, 'Mo': 1.0, 'F': 6.0}",10,0,"['F', 'K', 'Mo', 'Rb']",199.526720875353
46804,mp-675011,CsPF6,7.1429,"{'Cs': 1.0, 'P': 1.0, 'F': 6.0}",8,0,"['Cs', 'F', 'P']",143.981192774905
46814,mp-694911,BaCaBO3F,3.8711,"{'Ba': 3.0, 'Ca': 3.0, 'B': 3.0, 'O': 9.0, 'F': 3.0}",21,0.006625982653068,"['B', 'Ba', 'Ca', 'F', 'O']",319.111367384252
46885,mp-7624,Er2Si2O7,4.9176,"{'O': 14.0, 'Si': 4.0, 'Er': 4.0}",22,0.003068699090909,"['Er', 'O', 'Si']",285.188453012558
46907,mp-770839,LiCr(CO3)2,3.011,"{'Li': 1.0, 'Cr': 1.0, 'C': 2.0, 'O': 6.0}",10,0,"['C', 'Cr', 'Li', 'O']",95.1743299730303
46948,mp-862718,SrSn(PO4)2,3.6041,"{'Sr': 2.0, 'Sn': 2.0, 'P': 4.0, 'O': 16.0}",24,0,"['O', 'P', 'Sn', 'Sr']",330.306294248633
46966,mp-8877,Sr4Al6SO12,3.3444,"{'O': 12.0, 'Al': 6.0, 'S': 1.0, 'Sr': 4.0}",23,0,"['Al', 'O', 'S', 'Sr']",408.348241163459
46970,mp-972117,SrTeO3,3.6077,"{'Sr': 4.0, 'Te': 4.0, 'O': 12.0}",20,5.79100833322244E-05,"['O', 'Sr', 'Te']",356.265096770573
46996,mp-998421,KCaCl3,5.6173,"{'K': 2.0, 'Ca': 2.0, 'Cl': 6.0}",10,0.0043174295,"['Ca', 'Cl', 'K']",320.002340104256
47160,mp-1185319,LiCl,5.9282,"{'Li': 2.0, 'Cl': 2.0}",4,0,"['Cl', 'Li']",84.8100133048789
47215,mp-1211670,KBi3F10,4.4614,"{'K': 2.0, 'Bi': 6.0, 'F': 20.0}",28,0,"['Bi', 'F', 'K']",443.357513373184
47220,mp-1213157,CsSc(WO4)2,4.1734,"{'Cs': 1.0, 'Sc': 1.0, 'W': 2.0, 'O': 8.0}",12,0,"['Cs', 'O', 'Sc', 'W']",246.622957496674
47237,mp-1222715,Li2Ti2AsPO10,3.1511,"{'Li': 4.0, 'Ti': 4.0, 'As': 2.0, 'P': 2.0, 'O': 20.0}",32,0.003543659375014,"['As', 'Li', 'O', 'P', 'Ti']",370.352249633755
47277,mp-13947,Rb2HfF6,7.1223,"{'F': 6.0, 'Rb': 2.0, 'Hf': 1.0}",9,0,"['Rb', 'Hf', 'F']",165.217528045957
47284,mp-1880,SbF3,4.4381,"{'F': 6.0, 'Sb': 2.0}",8,0,"['Sb', 'F']",140.216302802909
47294,mp-21892,Al2PbO4,3.9425,"{'O': 8.0, 'Al': 4.0, 'Pb': 2.0}",14,0,"['Al', 'O', 'Pb']",206.097616722895
47322,mp-3540,Li2SnO3,3.1255,"{'Li': 8.0, 'O': 12.0, 'Sn': 4.0}",24,0,"['Li', 'O', 'Sn']",249.088542801938
47340,mp-558669,SrAl2B2O7,4.686,"{'Sr': 2.0, 'Al': 4.0, 'B': 4.0, 'O': 14.0}",24,0,"['Al', 'B', 'O', 'Sr']",343.94035923673
47448,mp-781505,Ca3WO6,3.716,"{'Ca': 6.0, 'W': 2.0, 'O': 12.0}",20,0,"['Ca', 'O', 'W']",288.63104211189
47449,mp-8081,Na2SnF6,4.9577,"{'F': 12.0, 'Na': 4.0, 'Sn': 2.0}",18,0,"['F', 'Na', 'Sn']",273.399135992753