,task_id,pretty_formula,band_gap,unit_cell_formula,nsites,e_above_hull,elements,volume
68199,mp-17477,AlFePO5,3.5128,"{'O': 20.0, 'Al': 4.0, 'P': 4.0, 'Fe': 4.0}",32,0,"['Al', 'Fe', 'O', 'P']",423.744429989451
68201,mp-18308,CaZn2(PO4)2,3.7859,"{'O': 16.0, 'P': 4.0, 'Ca': 2.0, 'Zn': 4.0}",26,0,"['Ca', 'O', 'P', 'Zn']",345.407727840724
68259,mp-557027,Rb2Be2Si2O7,4.3938,"{'Rb': 4.0, 'Be': 4.0, 'Si': 4.0, 'O': 14.0}",26,0,"['Be', 'O', 'Rb', 'Si']",395.553728216015
68266,mp-5618,Mg2As2O7,3.0413,"{'O': 7.0, 'Mg': 2.0, 'As': 2.0}",11,0,"['Mg', 'As', 'O']",135.670257376396
68296,mp-6528,Cs2NaAlF6,6.69,"{'F': 12.0, 'Na': 2.0, 'Al': 2.0, 'Cs': 4.0}",20,0,"['Al', 'Cs', 'F', 'Na']",345.631405225877
68424,mp-772823,Y2HfO5,3.8598,"{'Y': 8.0, 'Hf': 4.0, 'O': 20.0}",32,0.0052119834375,"['Hf', 'O', 'Y']",449.444612250257
68443,mp-779444,Li2MnFe(BO3)2,3.148,"{'Li': 4.0, 'Mn': 2.0, 'Fe': 2.0, 'B': 4.0, 'O': 12.0}",24,0.005477389305552,"['B', 'Fe', 'Li', 'Mn', 'O']",252.654304865317
68537,mp-10492,Rb2SiF6,6.9912,"{'F': 6.0, 'Si': 1.0, 'Rb': 2.0}",9,0,"['Rb', 'Si', 'F']",159.662132489282
68552,mp-1078801,CsI,3.8345,"{'Cs': 4.0, 'I': 4.0}",8,0.00335026125,"['Cs', 'I']",488.922741871856
68593,mp-1102717,BaWO4,4.7964,"{'Ba': 2.0, 'W': 2.0, 'O': 8.0}",12,0.002773869166669,"['Ba', 'O', 'W']",210.172112234217
68608,mp-1143,Al2O3,5.8537,"{'O': 6.0, 'Al': 4.0}",10,0,"['Al', 'O']",87.4200077442887
68706,mp-1211695,K3ErF6,6.5064,"{'K': 6.0, 'Er': 2.0, 'F': 12.0}",20,0,"['Er', 'F', 'K']",382.158231187958
68707,mp-1211746,KCd(PO3)3,4.1316,"{'K': 2.0, 'Cd': 2.0, 'P': 6.0, 'O': 18.0}",28,0,"['Cd', 'K', 'O', 'P']",426.605245966819
68798,mp-27437,Zr(IO3)4,3.1801,"{'O': 24.0, 'Zr': 2.0, 'I': 8.0}",34,0,"['I', 'O', 'Zr']",548.7624577486
68808,mp-3277,BAsO4,4.2651,"{'B': 1.0, 'O': 4.0, 'As': 1.0}",6,0,"['B', 'As', 'O']",72.3230101698302
68815,mp-504590,Ca2Si3PbO9,4.3501,"{'Pb': 2.0, 'Ca': 4.0, 'Si': 6.0, 'O': 18.0}",30,0.001947944944445,"['Ca', 'O', 'Pb', 'Si']",407.246980462129
68819,mp-541075,Rb2Mo3O10,3.3707,"{'Rb': 4.0, 'Mo': 6.0, 'O': 20.0}",30,0,"['Mo', 'O', 'Rb']",566.707985486159
68838,mp-570886,BeI2,4.078,"{'Be': 2.0, 'I': 4.0}",6,0,"['Be', 'I']",243.256985031677
68847,mp-6066,NaTaGeO5,3.35,"{'O': 10.0, 'Na': 2.0, 'Ge': 2.0, 'Ta': 2.0}",16,0,"['Ge', 'Na', 'O', 'Ta']",214.336807972747
69136,mp-1193015,CsVOF4,3.5538,"{'Cs': 4.0, 'V': 4.0, 'O': 4.0, 'F': 16.0}",28,0,"['Cs', 'F', 'O', 'V']",545.948938681476
69199,mp-1213982,Cd(GaCl4)2,3.5535,"{'Cd': 2.0, 'Ga': 4.0, 'Cl': 16.0}",22,0,"['Cd', 'Cl', 'Ga']",675.463753378738
69295,mp-23363,NaAlCl4,5.1567,"{'Na': 4.0, 'Al': 4.0, 'Cl': 16.0}",24,0,"['Al', 'Cl', 'Na']",668.743520507364
69307,mp-3079,CaTa4O11,3.5465,"{'O': 22.0, 'Ca': 2.0, 'Ta': 8.0}",32,0,"['Ca', 'O', 'Ta']",423.37702102099
69316,mp-4529,K2SO4,5.2088,"{'O': 16.0, 'S': 4.0, 'K': 8.0}",28,0,"['K', 'S', 'O']",457.24425542841
69333,mp-554885,Ba3Si6N4O9,4.3725,"{'Ba': 3.0, 'Si': 6.0, 'N': 4.0, 'O': 9.0}",22,0,"['Ba', 'N', 'O', 'Si']",319.819271018673
69368,mp-6384,RbSO2F,4.1056,"{'O': 4.0, 'F': 2.0, 'S': 2.0, 'Rb': 2.0}",10,0,"['F', 'O', 'Rb', 'S']",207.588378188377
69422,mp-757804,LiCoPO4,3.1151,"{'Li': 4.0, 'Co': 4.0, 'P': 4.0, 'O': 16.0}",28,0.006894676964287,"['Co', 'Li', 'O', 'P']",351.58791434977
69475,mp-9018,LiCdPO4,3.2221,"{'Li': 4.0, 'O': 16.0, 'P': 4.0, 'Cd': 4.0}",28,0.000516285039682,"['Cd', 'Li', 'O', 'P']",338.989866884797
69476,mp-9197,Li3AsO4,4.1299,"{'Li': 6.0, 'O': 8.0, 'As': 2.0}",16,0,"['As', 'Li', 'O']",175.888598948182
69598,mp-1190404,Sr3LiNbO6,3.2602,"{'Sr': 6.0, 'Li': 2.0, 'Nb': 2.0, 'O': 12.0}",22,0,"['Li', 'Nb', 'O', 'Sr']",321.24637899304
69661,mp-1209439,Rb8Ta6O19,3.4868,"{'Rb': 8.0, 'Ta': 6.0, 'O': 19.0}",33,0,"['O', 'Rb', 'Ta']",661.258830789407
69662,mp-1209467,RbAlBr4,4.0903,"{'Rb': 4.0, 'Al': 4.0, 'Br': 16.0}",24,0,"['Al', 'Br', 'Rb']",942.511646011334
69663,mp-1209533,RbGaBr4,3.2724,"{'Rb': 4.0, 'Ga': 4.0, 'Br': 16.0}",24,0,"['Br', 'Ga', 'Rb']",982.914859826442
69671,mp-1211533,K2YCl5,4.7822,"{'K': 8.0, 'Y': 4.0, 'Cl': 20.0}",32,0,"['Cl', 'K', 'Y']",900.173435973464
69687,mp-1213987,CaCdP2O7,3.6761,"{'Ca': 2.0, 'Cd': 2.0, 'P': 4.0, 'O': 14.0}",22,0,"['Ca', 'Cd', 'O', 'P']",279.495045320799
69825,mp-3031,BaSi2O5,4.7566,"{'O': 20.0, 'Si': 8.0, 'Ba': 4.0}",32,0,"['Ba', 'Si', 'O']",503.480671447292
69861,mp-557304,Sr2SiCl2O3,5.1218,"{'Sr': 8.0, 'Si': 4.0, 'Cl': 8.0, 'O': 12.0}",32,0.002315293229167,"['Cl', 'O', 'Si', 'Sr']",616.953743488864
69862,mp-557391,Na2Ca2(CO3)3,4.815,"{'Na': 2.0, 'Ca': 2.0, 'C': 3.0, 'O': 9.0}",16,0,"['C', 'Ca', 'Na', 'O']",201.031145587393
69866,mp-558580,Na2Zn(SiO3)2,3.6116,"{'Na': 4.0, 'Zn': 2.0, 'Si': 4.0, 'O': 12.0}",22,0.007789893636363,"['Na', 'O', 'Si', 'Zn']",301.836105498383
69882,mp-570262,Cs3ZnCl5,4.2793,"{'Cs': 6.0, 'Zn': 2.0, 'Cl': 10.0}",18,0,"['Cl', 'Cs', 'Zn']",654.055739707951
69894,mp-638061,AlInCl4,4.1921,"{'Al': 4.0, 'In': 4.0, 'Cl': 16.0}",24,0,"['Al', 'Cl', 'In']",743.487423771147
70057,mp-1153,Li2S,3.4112,"{'Li': 2.0, 'S': 1.0}",3,0,"['Li', 'S']",46.8207206760077
70139,mp-1211285,KTa(PO4)2,3.3596,"{'K': 1.0, 'Ta': 1.0, 'P': 2.0, 'O': 8.0}",12,0,"['K', 'O', 'P', 'Ta']",187.54399957771
70212,mp-13725,Li3PO4,5.8202,"{'Li': 6.0, 'O': 8.0, 'P': 2.0}",16,0,"['Li', 'P', 'O']",161.019659345396
70239,mp-17562,Sr3Sc(BO3)3,4.6271,"{'B': 6.0, 'O': 18.0, 'Sc': 2.0, 'Sr': 6.0}",32,0,"['B', 'O', 'Sc', 'Sr']",404.402040377134
70245,mp-18684,KPF6,7.221,"{'F': 24.0, 'P': 4.0, 'K': 4.0}",32,0.0010840325,"['F', 'K', 'P']",478.61595914753
70246,mp-18753,Na3Mo(OF)3,3.8927,"{'O': 3.0, 'F': 3.0, 'Na': 3.0, 'Mo': 1.0}",10,0,"['F', 'Mo', 'Na', 'O']",139.360746896799
70248,mp-18834,SrMoO4,3.8074,"{'Sr': 2.0, 'Mo': 2.0, 'O': 8.0}",12,0,"['Mo', 'O', 'Sr']",184.100933915139
70294,mp-27972,AcBr3,4.1045,"{'Br': 6.0, 'Ac': 2.0}",8,0,"['Ac', 'Br']",278.264427710508
70298,mp-28158,K4Be3O5,3.2106,"{'Be': 6.0, 'O': 10.0, 'K': 8.0}",24,0,"['Be', 'K', 'O']",366.424272349213
70304,mp-28873,CsBrO3,4.3026,"{'O': 3.0, 'Br': 1.0, 'Cs': 1.0}",5,0,"['Br', 'Cs', 'O']",109.806263088934
70320,mp-3318,Na2BeF4,6.6745,"{'Be': 4.0, 'F': 16.0, 'Na': 8.0}",28,0,"['Be', 'F', 'Na']",365.260264168385
70326,mp-38103,NaClO4,5.2865,"{'Cl': 1.0, 'Na': 1.0, 'O': 4.0}",6,0.00439326,"['Na', 'Cl', 'O']",84.9547833514184
70364,mp-559364,SrBi2(B2O5)2,3.645,"{'Sr': 2.0, 'Bi': 4.0, 'B': 8.0, 'O': 20.0}",34,0,"['B', 'Bi', 'O', 'Sr']",435.0879001742
70578,mp-1188115,Cs3ZnBr5,3.6429,"{'Cs': 6.0, 'Zn': 2.0, 'Br': 10.0}",18,0,"['Br', 'Cs', 'Zn']",763.550135147289
70658,mp-1222598,Li3AsO4,4.1375,"{'Li': 12.0, 'As': 4.0, 'O': 16.0}",32,0.0037053159375,"['As', 'Li', 'O']",359.385067030821
70683,mp-13634,Cs2LiAl3F12,7.0876,"{'Li': 1.0, 'F': 12.0, 'Al': 3.0, 'Cs': 2.0}",18,0,"['Al', 'Cs', 'F', 'Li']",258.719806445722
70726,mp-3033,RbTaO3,3.5409,"{'O': 12.0, 'Rb': 4.0, 'Ta': 4.0}",20,0,"['Rb', 'Ta', 'O']",344.392160576812
70738,mp-505273,NiMoO4,3.0004,"{'Ni': 4.0, 'Mo': 4.0, 'O': 16.0}",24,0,"['Mo', 'Ni', 'O']",307.400556780974
70742,mp-541162,Ba2Mg3F10,6.8917,"{'Ba': 4.0, 'Mg': 6.0, 'F': 20.0}",30,0.006237105999979,"['Ba', 'F', 'Mg']",415.584554390202
70775,mp-558523,PAuClF3,3.5308,"{'P': 4.0, 'Au': 4.0, 'Cl': 4.0, 'F': 12.0}",24,0,"['Au', 'Cl', 'F', 'P']",525.091955875815
70827,mp-6492,Ba2YSbO6,3.5379,"{'O': 6.0, 'Y': 1.0, 'Sb': 1.0, 'Ba': 2.0}",10,0,"['Ba', 'O', 'Sb', 'Y']",155.181386408286
70828,mp-6494,K2Ca(CO3)2,4.3437,"{'C': 2.0, 'O': 6.0, 'K': 2.0, 'Ca': 1.0}",11,0,"['K', 'Ca', 'C', 'O']",158.913760574365
70911,mp-760762,NbOF3,3.6441,"{'Nb': 4.0, 'O': 4.0, 'F': 12.0}",20,0,"['F', 'Nb', 'O']",296.732763035662
70938,mp-769079,ScGaO3,3.1767,"{'Sc': 6.0, 'Ga': 6.0, 'O': 18.0}",30,0.004677094833332,"['Ga', 'O', 'Sc']",335.952732322933
70978,mp-8861,Rb2MgF4,6.2289,"{'F': 4.0, 'Mg': 1.0, 'Rb': 2.0}",7,0,"['Rb', 'Mg', 'F']",119.527278176551
71036,mp-1094131,Mg7Fe(SiO4)4,3.5697,"{'Mg': 7.0, 'Fe': 1.0, 'Si': 4.0, 'O': 16.0}",28,0.000945225357149,"['Fe', 'Mg', 'O', 'Si']",302.634378268665
71056,mp-1111932,K2LiScCl6,3.7414,"{'K': 2.0, 'Li': 1.0, 'Sc': 1.0, 'Cl': 6.0}",10,0,"['Cl', 'K', 'Li', 'Sc']",259.569312034499
71095,mp-1190733,Cs4PbCl6,4.2715,"{'Cs': 8.0, 'Pb': 2.0, 'Cl': 12.0}",22,0,"['Cl', 'Cs', 'Pb']",893.88314347383
71161,mp-1221802,Mn2P2O7,3.3199,"{'Mn': 2.0, 'P': 2.0, 'O': 7.0}",11,0.000695451818183,"['Mn', 'O', 'P']",130.985231058012
71206,mp-17288,Li2ZnSiO4,3.7837,"{'Li': 8.0, 'O': 16.0, 'Si': 4.0, 'Zn': 4.0}",32,0,"['Li', 'O', 'Si', 'Zn']",348.732147481523
71220,mp-23280,AsCl3,3.9884,"{'Cl': 12.0, 'As': 4.0}",16,0,"['As', 'Cl']",582.085329050697
71265,mp-556856,BaCSNCl,4.1176,"{'Ba': 2.0, 'C': 2.0, 'S': 2.0, 'N': 2.0, 'Cl': 2.0}",10,0.009584645773996,"['Ba', 'C', 'S', 'N', 'Cl']",244.096840494878
71288,mp-6026,Na2Mg(CO3)2,4.4202,"{'C': 2.0, 'O': 6.0, 'Na': 2.0, 'Mg': 1.0}",11,0,"['C', 'Mg', 'Na', 'O']",119.874886751647
71300,mp-6574,Er2C(NO)2,4.0014,"{'C': 1.0, 'N': 2.0, 'O': 2.0, 'Er': 2.0}",7,0,"['C', 'Er', 'N', 'O']",96.2809585034417
71321,mp-7035,CaMgAsO4F,3.9326,"{'O': 8.0, 'F': 2.0, 'Mg': 2.0, 'Ca': 2.0, 'As': 2.0}",16,0,"['As', 'Ca', 'F', 'Mg', 'O']",203.638937618883
71429,mp-8000,SrSn(BO3)2,3.6159,"{'B': 2.0, 'O': 6.0, 'Sr': 1.0, 'Sn': 1.0}",10,0,"['B', 'O', 'Sn', 'Sr']",123.428265001036
71458,mp-9143,LiPF6,7.5394,"{'Li': 1.0, 'F': 6.0, 'P': 1.0}",8,0,"['F', 'Li', 'P']",93.5981056203653
71482,mp-998324,RbCaCl3,5.3304,"{'Rb': 2.0, 'Ca': 2.0, 'Cl': 6.0}",10,0,"['Ca', 'Cl', 'Rb']",314.486754724915
71546,mp-1078391,CaZn(CO3)2,3.9729,"{'Ca': 1.0, 'Zn': 1.0, 'C': 2.0, 'O': 6.0}",10,0.001316692499998,"['C', 'Ca', 'O', 'Zn']",111.63528305503
71616,mp-1113058,Cs2KErCl6,5.1104,"{'Cs': 2.0, 'K': 1.0, 'Er': 1.0, 'Cl': 6.0}",10,0,"['Cl', 'Cs', 'Er', 'K']",361.031803597556
71715,mp-1212122,InCl2,3.0152,"{'In': 8.0, 'Cl': 16.0}",24,0,"['Cl', 'In']",826.099827914503
71787,mp-12671,Er2SO2,3.0733,"{'O': 2.0, 'S': 1.0, 'Er': 2.0}",5,0,"['Er', 'O', 'S']",80.6189434930026
71790,mp-13926,Rb2NaYF6,6.4704,"{'F': 6.0, 'Na': 1.0, 'Rb': 2.0, 'Y': 1.0}",10,0,"['F', 'Na', 'Rb', 'Y']",182.922164339732
71799,mp-19047,MgMoO4,3.7851,"{'O': 16.0, 'Mg': 4.0, 'Mo': 4.0}",24,0,"['Mg', 'Mo', 'O']",336.4593904844
71800,mp-19114,Ca2NiWO6,3.3003,"{'Ca': 4.0, 'Ni': 2.0, 'W': 2.0, 'O': 12.0}",20,0,"['Ca', 'Ni', 'O', 'W']",237.914410608623
71855,mp-551203,Sr2I2O,3.4218,"{'Sr': 4.0, 'I': 4.0, 'O': 2.0}",10,0,"['I', 'O', 'Sr']",329.691906320308
71887,mp-6062,YAl3(BO3)4,5.3553,"{'B': 4.0, 'O': 12.0, 'Al': 3.0, 'Y': 1.0}",20,0,"['Al', 'B', 'O', 'Y']",185.099119823578
71909,mp-7012,KRb2YF6,6.3844,"{'F': 12.0, 'K': 2.0, 'Rb': 4.0, 'Y': 2.0}",20,0,"['F', 'K', 'Rb', 'Y']",416.167660831473
71983,mp-9066,NaLi2AsO4,3.8891,"{'Li': 4.0, 'O': 8.0, 'Na': 2.0, 'As': 2.0}",16,0,"['As', 'Li', 'Na', 'O']",193.905811223613
71993,mp-989605,Cs2RbInF6,5.376,"{'Cs': 2.0, 'Rb': 1.0, 'In': 1.0, 'F': 6.0}",10,0,"['Cs', 'Rb', 'In', 'F']",224.702007960499
72010,mp-1020715,Sr6Y2Al4O15,3.991,"{'Sr': 6.0, 'Y': 2.0, 'Al': 4.0, 'O': 15.0}",27,0.007629730401235,"['Al', 'O', 'Sr', 'Y']",400.523493518041
72037,mp-1087215,NaAsF6,4.9287,"{'Na': 1.0, 'As': 1.0, 'F': 6.0}",8,0.00183129,"['As', 'F', 'Na']",135.222661486235
72266,mp-13229,K3GdF6,4.5665,"{'F': 12.0, 'K': 6.0, 'Gd': 2.0}",20,0.003558382499995,"['F', 'Gd', 'K']",397.267570384755
72277,mp-18197,Na2BeGeO4,3.7032,"{'Be': 4.0, 'O': 16.0, 'Na': 8.0, 'Ge': 4.0}",32,0.002454043125002,"['Be', 'Ge', 'Na', 'O']",379.863657007558
72371,mp-638729,Cs2ZrCl6,3.6365,"{'Cs': 2.0, 'Zr': 1.0, 'Cl': 6.0}",9,0,"['Cs', 'Zr', 'Cl']",314.891536913786
72418,mp-755317,Y2TeO6,3.0839,"{'Y': 6.0, 'Te': 3.0, 'O': 18.0}",27,0.005866128425911,"['O', 'Te', 'Y']",383.305390737281
72435,mp-7595,GeF2,4.0002,"{'F': 8.0, 'Ge': 4.0}",12,0,"['Ge', 'F']",214.791597602822
72592,mp-1191311,Ba2MgSi2O7,4.4788,"{'Ba': 4.0, 'Mg': 2.0, 'Si': 4.0, 'O': 14.0}",24,0.004288305416669,"['Ba', 'Mg', 'O', 'Si']",371.849971414953
72643,mp-1208776,Sr2ScTaO6,3.4391,"{'Sr': 4.0, 'Sc': 2.0, 'Ta': 2.0, 'O': 12.0}",20,0,"['O', 'Sc', 'Sr', 'Ta']",268.526952460774
72706,mp-1218075,SrCaZnSi2O7,3.9789,"{'Sr': 2.0, 'Ca': 2.0, 'Zn': 2.0, 'Si': 4.0, 'O': 14.0}",24,0.0088928475,"['Ca', 'O', 'Si', 'Sr', 'Zn']",329.296660780041
72714,mp-1219617,RbAlSi3O8,4.8168,"{'Rb': 2.0, 'Al': 2.0, 'Si': 6.0, 'O': 16.0}",26,0.006010750384614,"['Al', 'O', 'Rb', 'Si']",387.485960604879
72725,mp-1222195,Mg3Fe(SiO4)2,3.4522,"{'Mg': 6.0, 'Fe': 2.0, 'Si': 4.0, 'O': 16.0}",28,0.000987978928572,"['Fe', 'Mg', 'O', 'Si']",305.607088011239
72727,mp-1222742,Li2MgSiO4,4.7392,"{'Li': 8.0, 'Mg': 4.0, 'Si': 4.0, 'O': 16.0}",32,0.001136408437501,"['Li', 'Mg', 'O', 'Si']",348.594078890303
72800,mp-15312,Ca4Al6TeO12,3.1458,"{'O': 12.0, 'Al': 6.0, 'Ca': 4.0, 'Te': 1.0}",23,0,"['Al', 'Ca', 'O', 'Te']",393.825575417467
72811,mp-17245,Na3TaF8,4.8575,"{'F': 16.0, 'Na': 6.0, 'Ta': 2.0}",24,0,"['F', 'Na', 'Ta']",311.244722216143
72815,mp-19147,NiCO3,3.3914,"{'C': 2.0, 'O': 6.0, 'Ni': 2.0}",10,0,"['Ni', 'C', 'O']",93.1058894297356
72966,mp-8058,YAsO4,3.6599,"{'O': 8.0, 'As': 2.0, 'Y': 2.0}",12,0,"['As', 'O', 'Y']",163.797701989041
73055,mp-1111108,K2NaAsF6,4.5049,"{'K': 2.0, 'Na': 1.0, 'As': 1.0, 'F': 6.0}",10,0,"['As', 'F', 'K', 'Na']",163.055358555893
73126,mp-1206440,Cs2LiCrF6,4.1173,"{'Cs': 2.0, 'Li': 1.0, 'Cr': 1.0, 'F': 6.0}",10,0,"['Cr', 'Cs', 'F', 'Li']",180.28784221899
73150,mp-1221000,NaTaWO6,3.2385,"{'Na': 2.0, 'Ta': 2.0, 'W': 2.0, 'O': 12.0}",18,0.001668879444445,"['Na', 'O', 'Ta', 'W']",287.188336215073
73185,mp-13356,Ba2SrTeO6,3.1297,"{'Ba': 2.0, 'Sr': 1.0, 'Te': 1.0, 'O': 6.0}",10,0,"['Ba', 'O', 'Sr', 'Te']",165.072538129157
73243,mp-30972,Na2Sb4O7,3.0549,"{'O': 14.0, 'Na': 4.0, 'Sb': 8.0}",26,0,"['Na', 'O', 'Sb']",498.398059725537
73268,mp-504723,Ba2NiWO6,3.3435,"{'O': 6.0, 'Ni': 1.0, 'Ba': 2.0, 'W': 1.0}",10,0,"['Ba', 'Ni', 'W', 'O']",138.010441330795
73288,mp-542831,Gd2SiO5,3.0204,"{'Gd': 8.0, 'Si': 4.0, 'O': 20.0}",32,0,"['Gd', 'O', 'Si']",424.898976989268
73293,mp-554072,K2CO3,3.6203,"{'K': 4.0, 'C': 2.0, 'O': 6.0}",12,0.002325085833336,"['C', 'K', 'O']",200.800884876171
73297,mp-554451,BaFeF4,3.3577,"{'Ba': 2.0, 'Fe': 2.0, 'F': 8.0}",12,0.003185428333333,"['Ba', 'Fe', 'F']",193.16161198717
73350,mp-6204,Cs2NaScF6,6.7991,"{'F': 6.0, 'Na': 1.0, 'Sc': 1.0, 'Cs': 2.0}",10,0,"['Cs', 'Na', 'Sc', 'F']",181.122874282962
73373,mp-6568,BaCa(CO3)2,4.687,"{'C': 4.0, 'O': 12.0, 'Ca': 2.0, 'Ba': 2.0}",20,0.005861463,"['Ba', 'C', 'Ca', 'O']",279.257919137882
73400,mp-6952,RbYbF3,6.5227,"{'F': 3.0, 'Rb': 1.0, 'Yb': 1.0}",5,0,"['Rb', 'Yb', 'F']",88.0431804012469
73454,mp-768144,Na2SbPCO7,3.8758,"{'Na': 4.0, 'Sb': 2.0, 'P': 2.0, 'C': 2.0, 'O': 14.0}",24,0,"['C', 'Na', 'O', 'P', 'Sb']",350.074959023091
73551,mp-1111963,Cs2RbScF6,6.5419,"{'Cs': 2.0, 'Rb': 1.0, 'Sc': 1.0, 'F': 6.0}",10,0,"['Cs', 'F', 'Rb', 'Sc']",215.635561790687
73611,mp-1205803,Ba2ErTaO6,3.3886,"{'Ba': 2.0, 'Er': 1.0, 'Ta': 1.0, 'O': 6.0}",10,0,"['Ba', 'Er', 'O', 'Ta']",153.531611972784
73692,mp-1228581,Ba4Na2W2O11,3.6377,"{'Ba': 4.0, 'Na': 2.0, 'W': 2.0, 'O': 11.0}",19,0,"['Ba', 'Na', 'O', 'W']",314.197083651273
73726,mp-17541,KSrVO4,3.8592,"{'O': 16.0, 'K': 4.0, 'V': 4.0, 'Sr': 4.0}",28,0.002521371785713,"['K', 'O', 'Sr', 'V']",455.479688926974
73736,mp-22909,ZnCl2,4.0499,"{'Cl': 4.0, 'Zn': 2.0}",6,0,"['Zn', 'Cl']",164.305908964364
73766,mp-541619,Na2TeO3,3.2684,"{'Te': 4.0, 'Na': 8.0, 'O': 12.0}",24,0,"['Na', 'O', 'Te']",363.135934216856
73796,mp-5811,CsPbF3,3.0475,"{'F': 3.0, 'Cs': 1.0, 'Pb': 1.0}",5,0.004570760999999,"['Cs', 'F', 'Pb']",117.828050731679
73807,mp-6397,Na2Ca(SO4)2,5.4815,"{'O': 16.0, 'Na': 4.0, 'S': 4.0, 'Ca': 2.0}",26,0,"['Ca', 'Na', 'O', 'S']",345.385966068607
73836,mp-7297,Cs2SnF6,5.3375,"{'F': 6.0, 'Sn': 1.0, 'Cs': 2.0}",9,0,"['Cs', 'F', 'Sn']",186.243651343086
73849,mp-754665,Pb(BrO3)2,3.5885,"{'Pb': 2.0, 'Br': 4.0, 'O': 12.0}",18,0,"['Br', 'O', 'Pb']",312.912103631597
73929,mp-778994,Li4MnFe3(BO3)4,3.1586,"{'Li': 4.0, 'Mn': 1.0, 'Fe': 3.0, 'B': 4.0, 'O': 12.0}",24,0.003937225069445,"['B', 'Fe', 'Li', 'Mn', 'O']",251.413601665925
74288,mp-22003,NaN3,4.0245,"{'N': 3.0, 'Na': 1.0}",4,0,"['Na', 'N']",60.0351407140085
74299,mp-23151,Na4BeAlSi4ClO12,4.6338,"{'Be': 1.0, 'O': 12.0, 'Na': 4.0, 'Al': 1.0, 'Si': 4.0, 'Cl': 1.0}",23,0,"['Al', 'Be', 'Cl', 'Na', 'O', 'Si']",341.524670257315
74315,mp-28291,Ge(SF6)2,4.9602,"{'F': 24.0, 'S': 4.0, 'Ge': 2.0}",30,0,"['F', 'Ge', 'S']",453.288350001468
74323,mp-3828,BaAl2O4,3.9423,"{'Ba': 2.0, 'Al': 4.0, 'O': 8.0}",14,0.003615194107143,"['Al', 'Ba', 'O']",215.859770640616
74355,mp-568848,GaCl2,3.8516,"{'Ga': 8.0, 'Cl': 16.0}",24,0,"['Ga', 'Cl']",706.191760378143
74373,mp-6686,K2NaInF6,5.2445,"{'F': 6.0, 'Na': 1.0, 'K': 2.0, 'In': 1.0}",10,0,"['K', 'Na', 'In', 'F']",166.299586886637
74399,mp-753902,LiFeBO3,3.1612,"{'Li': 2.0, 'Fe': 2.0, 'B': 2.0, 'O': 6.0}",12,0.005056485000008,"['B', 'Fe', 'Li', 'O']",123.689270745363
74481,mp-9844,BaAl2B2O7,4.6455,"{'B': 2.0, 'O': 7.0, 'Al': 2.0, 'Ba': 1.0}",12,0,"['Ba', 'Al', 'B', 'O']",183.868823556503
74507,mp-1019558,BaSr2Mg(SiO4)2,4.7621,"{'Ba': 1.0, 'Sr': 2.0, 'Mg': 1.0, 'Si': 2.0, 'O': 8.0}",14,0,"['Ba', 'Mg', 'O', 'Si', 'Sr']",190.035901682375
74629,mp-1193172,Li2Mn(SO4)2,4.6326,"{'Li': 4.0, 'Mn': 2.0, 'S': 4.0, 'O': 16.0}",26,0,"['Li', 'Mn', 'O', 'S']",328.850815252185
74671,mp-1206039,Rb2SnF6,5.3714,"{'Rb': 2.0, 'Sn': 1.0, 'F': 6.0}",9,0,"['F', 'Rb', 'Sn']",184.543097026944
74750,mp-1227178,Ca4ZrTi3(SiO5)4,3.0211,"{'Ca': 4.0, 'Zr': 1.0, 'Ti': 3.0, 'Si': 4.0, 'O': 20.0}",32,0.009202560703121,"['Ca', 'O', 'Si', 'Ti', 'Zr']",391.302718003587
74770,mp-13230,K3YF6,6.4632,"{'F': 12.0, 'K': 6.0, 'Y': 2.0}",20,0,"['F', 'K', 'Y']",390.664585060165
74775,mp-17071,Rb2CrO4,3.1347,"{'O': 16.0, 'Cr': 4.0, 'Rb': 8.0}",28,0,"['Cr', 'O', 'Rb']",554.694810665404
74783,mp-19219,Li3VO4,4.0385,"{'Li': 6.0, 'O': 8.0, 'V': 2.0}",16,0,"['Li', 'V', 'O']",177.781030951161
74829,mp-554151,SiO2,5.7171,"{'Si': 4.0, 'O': 8.0}",12,0.005578675833332,"['O', 'Si']",193.642030563847
74836,mp-555692,Rb2CO3,3.2556,"{'Rb': 8.0, 'C': 4.0, 'O': 12.0}",24,0.001370320833333,"['C', 'O', 'Rb']",465.6447399219
74844,mp-559377,IOF3,3.628,"{'I': 4.0, 'O': 4.0, 'F': 12.0}",20,0,"['F', 'I', 'O']",356.250334155182
74877,mp-6654,Cs2LiGaF6,6.1363,"{'Li': 1.0, 'F': 6.0, 'Ga': 1.0, 'Cs': 2.0}",10,0,"['Cs', 'Li', 'Ga', 'F']",181.493238879375
74972,mp-8140,AsPO4,4.5679,"{'O': 16.0, 'P': 4.0, 'As': 4.0}",24,0,"['As', 'O', 'P']",342.517736078105
74973,mp-8376,MgAlBO4,6.0084,"{'B': 4.0, 'O': 16.0, 'Mg': 4.0, 'Al': 4.0}",28,0,"['Al', 'B', 'Mg', 'O']",250.199673675656
74979,mp-864766,NaMgSO4F,5.6118,"{'Na': 2.0, 'Mg': 2.0, 'S': 2.0, 'O': 8.0, 'F': 2.0}",16,0,"['F', 'Mg', 'Na', 'O', 'S']",189.80231104342
74983,mp-9636,CsSbF6,5.0883,"{'F': 6.0, 'Sb': 1.0, 'Cs': 1.0}",8,0,"['Cs', 'Sb', 'F']",159.15112183742
75034,mp-1080232,CsSrI3,3.8228,"{'Cs': 2.0, 'Sr': 2.0, 'I': 6.0}",10,0,"['Cs', 'I', 'Sr']",499.667519736924
75096,mp-1192761,Cs2HgCl4,3.0411,"{'Cs': 8.0, 'Hg': 4.0, 'Cl': 16.0}",28,0.006028010178571,"['Cl', 'Cs', 'Hg']",1088.02257040513
75123,mp-1208684,SrCa2(TeO3)3,3.3727,"{'Sr': 2.0, 'Ca': 4.0, 'Te': 6.0, 'O': 18.0}",30,0.002575596827778,"['Ca', 'O', 'Sr', 'Te']",553.060638874765
75270,mp-14161,Sr4Al6SO16,4.3936,"{'O': 16.0, 'Al': 6.0, 'S': 1.0, 'Sr': 4.0}",27,0.001740307129627,"['Al', 'O', 'S', 'Sr']",418.130195567226
75297,mp-1960,Li2O,4.9168,"{'Li': 2.0, 'O': 1.0}",3,0,"['Li', 'O']",25.1963567323965
75328,mp-27455,YCl3,4.9362,"{'Cl': 6.0, 'Y': 2.0}",8,0,"['Y', 'Cl']",282.01136690517
75331,mp-28512,Ba(ClO3)2,5.2793,"{'Ba': 2.0, 'Cl': 4.0, 'O': 12.0}",18,0,"['Ba', 'Cl', 'O']",320.729257539271
75348,mp-5503,ErTaO4,4.0561,"{'O': 8.0, 'Er': 2.0, 'Ta': 2.0}",12,0.003976592499999,"['Er', 'Ta', 'O']",148.069087779532
75355,mp-555669,RbZrMnF7,4.4404,"{'Rb': 2.0, 'Zr': 2.0, 'Mn': 2.0, 'F': 14.0}",20,0,"['F', 'Mn', 'Rb', 'Zr']",319.495385735829
75361,mp-557992,InTeClO3,3.0723,"{'In': 4.0, 'Te': 4.0, 'Cl': 4.0, 'O': 12.0}",24,0,"['Cl', 'In', 'O', 'Te']",426.547404234574
75362,mp-558597,NaLiY2F8,7.3039,"{'Na': 2.0, 'Li': 2.0, 'Y': 4.0, 'F': 16.0}",24,0.0048546275,"['F', 'Li', 'Na', 'Y']",317.339966244769